Program Version,EnergyPlus, Version 8.9.0-eba93e8e1b, YMD=2019.03.19 18:46
1,5,Environment Title[],Latitude[deg],Longitude[deg],Time Zone[],Elevation[m]
2,8,Day of Simulation[],Month[],Day of Month[],DST Indicator[1=yes 0=no],Hour[],StartMinute[],EndMinute[],DayType
3,5,Cumulative Day of Simulation[],Month[],Day of Month[],DST Indicator[1=yes 0=no],DayType  ! When Daily Report Variables Requested
4,2,Cumulative Days of Simulation[],Month[]  ! When Monthly Report Variables Requested
5,1,Cumulative Days of Simulation[] ! When Run Period Report Variables Requested
6,1,Calendar Year of Simulation[] ! When Annual Report Variables Requested
7,9,Environment,Site Outdoor Air Drybulb Temperature [C] !Monthly [Value,Min,Day,Hour,Minute,Max,Day,Hour,Minute]
8,1,Environment,Site Outdoor Air Wetbulb Temperature [C] !TimeStep
1125,1,ALL_ST=WHOLEBUILDING_FL=STORY 1_SCH=A,Zone Air Temperature [C] !Hourly
1126,7,ALL_ST=WHOLEBUILDING_FL=STORY 1_SCH=A,Zone Air Relative Humidity [%] !Daily [Value,Min,Hour,Minute,Max,Hour,Minute]
1165,1,ALL_ST=WHOLEBUILDING_FL=STORY 1_SCH=D,Zone Air Temperature [C] !Hourly
1166,7,ALL_ST=WHOLEBUILDING_FL=STORY 1_SCH=D,Zone Air Relative Humidity [%] !Daily [Value,Min,Hour,Minute,Max,Hour,Minute]
1205,1,ALL_ST=WHOLEBUILDING_FL=STORY 1_SCH=E,Zone Air Temperature [C] !Hourly
1206,7,ALL_ST=WHOLEBUILDING_FL=STORY 1_SCH=E,Zone Air Relative Humidity [%] !Daily [Value,Min,Hour,Minute,Max,Hour,Minute]
1245,1,ALL_ST=WHOLEBUILDING_FL=STORY 1_SCH=E 1,Zone Air Temperature [C] !Hourly
1246,7,ALL_ST=WHOLEBUILDING_FL=STORY 1_SCH=E 1,Zone Air Relative Humidity [%] !Daily [Value,Min,Hour,Minute,Max,Hour,Minute]
1285,1,ALL_ST=WHOLEBUILDING_FL=STORY 1_SCH=H,Zone Air Temperature [C] !Hourly
1286,7,ALL_ST=WHOLEBUILDING_FL=STORY 1_SCH=H,Zone Air Relative Humidity [%] !Daily [Value,Min,Hour,Minute,Max,Hour,Minute]
1325,1,ALL_ST=WHOLEBUILDING_FL=STORY 2_SCH=A,Zone Air Temperature [C] !Hourly
1326,7,ALL_ST=WHOLEBUILDING_FL=STORY 2_SCH=A,Zone Air Relative Humidity [%] !Daily [Value,Min,Hour,Minute,Max,Hour,Minute]
1365,1,ALL_ST=WHOLEBUILDING_FL=STORY 2_SCH=E,Zone Air Temperature [C] !Hourly
1366,7,ALL_ST=WHOLEBUILDING_FL=STORY 2_SCH=E,Zone Air Relative Humidity [%] !Daily [Value,Min,Hour,Minute,Max,Hour,Minute]
1405,1,ALL_ST=WHOLEBUILDING_FL=STORY 2_SCH=E 1,Zone Air Temperature [C] !Hourly
1406,7,ALL_ST=WHOLEBUILDING_FL=STORY 2_SCH=E 1,Zone Air Relative Humidity [%] !Daily [Value,Min,Hour,Minute,Max,Hour,Minute]
1445,1,ALL_ST=WHOLEBUILDING_FL=STORY 2_SCH=E 2,Zone Air Temperature [C] !Hourly
1446,7,ALL_ST=WHOLEBUILDING_FL=STORY 2_SCH=E 2,Zone Air Relative Humidity [%] !Daily [Value,Min,Hour,Minute,Max,Hour,Minute]
1485,1,ALL_ST=WHOLEBUILDING_FL=STORY 2_SCH=E 3,Zone Air Temperature [C] !Hourly
1486,7,ALL_ST=WHOLEBUILDING_FL=STORY 2_SCH=E 3,Zone Air Relative Humidity [%] !Daily [Value,Min,Hour,Minute,Max,Hour,Minute]
1525,1,ALL_ST=WHOLEBUILDING_FL=STORY 3_SCH=B,Zone Air Temperature [C] !Hourly
1526,7,ALL_ST=WHOLEBUILDING_FL=STORY 3_SCH=B,Zone Air Relative Humidity [%] !Daily [Value,Min,Hour,Minute,Max,Hour,Minute]
1565,1,ALL_ST=WHOLEBUILDING_FL=STORY 4_SCH=A,Zone Air Temperature [C] !Hourly
1566,7,ALL_ST=WHOLEBUILDING_FL=STORY 4_SCH=A,Zone Air Relative Humidity [%] !Daily [Value,Min,Hour,Minute,Max,Hour,Minute]
1605,1,ALL_ST=WORKSHOP SPACE_FL=STORY 3_SCH=A,Zone Air Temperature [C] !Hourly
1606,7,ALL_ST=WORKSHOP SPACE_FL=STORY 3_SCH=A,Zone Air Relative Humidity [%] !Daily [Value,Min,Hour,Minute,Max,Hour,Minute]
1645,1,WET_ST=WASHROOM-SCH-C_FL=STORY 4_SCHE,Zone Air Temperature [C] !Hourly
1646,7,WET_ST=WASHROOM-SCH-C_FL=STORY 4_SCHE,Zone Air Relative Humidity [%] !Daily [Value,Min,Hour,Minute,Max,Hour,Minute]
1685,1,WET_ST=WASHROOM-SCH-D_FL=STORY 4_SCHE,Zone Air Temperature [C] !Hourly
1686,7,WET_ST=WASHROOM-SCH-D_FL=STORY 4_SCHE,Zone Air Relative Humidity [%] !Daily [Value,Min,Hour,Minute,Max,Hour,Minute]
1725,1,WET_ST=WASHROOM-SCH-E_FL=STORY 4_SCHE,Zone Air Temperature [C] !Hourly
1726,7,WET_ST=WASHROOM-SCH-E_FL=STORY 4_SCHE,Zone Air Relative Humidity [%] !Daily [Value,Min,Hour,Minute,Max,Hour,Minute]
1765,1,WET_ST=WASHROOM-SCH-F_FL=STORY 3_SCHE,Zone Air Temperature [C] !Hourly
1766,7,WET_ST=WASHROOM-SCH-F_FL=STORY 3_SCHE,Zone Air Relative Humidity [%] !Daily [Value,Min,Hour,Minute,Max,Hour,Minute]
1805,1,WET_ST=WASHROOM-SCH-G_FL=STORY 3_SCHE,Zone Air Temperature [C] !Hourly
1806,7,WET_ST=WASHROOM-SCH-G_FL=STORY 3_SCHE,Zone Air Relative Humidity [%] !Daily [Value,Min,Hour,Minute,Max,Hour,Minute]
1845,1,WET_ST=WASHROOM-SCH-H_FL=STORY 4_SCHE,Zone Air Temperature [C] !Hourly
1846,7,WET_ST=WASHROOM-SCH-H_FL=STORY 4_SCHE,Zone Air Relative Humidity [%] !Daily [Value,Min,Hour,Minute,Max,Hour,Minute]
1885,1,WET_ST=WASHROOM-SCH-I_FL=STORY 3_SCHE,Zone Air Temperature [C] !Hourly
1886,7,WET_ST=WASHROOM-SCH-I_FL=STORY 3_SCHE,Zone Air Relative Humidity [%] !Daily [Value,Min,Hour,Minute,Max,Hour,Minute]
10,1,Electricity:Facility [J] !TimeStep
891,1,Gas:Facility [J] !TimeStep
End of Data Dictionary
1,FORT MCMURRAY AP ANN CLG .4% CONDNS DB=>MWB,  56.65,-111.22,  -7.00, 369.10
2,1, 7,21, 0, 1, 0.00,10.00,SummerDesignDay
8,14.218136923962174
10,64115863.44836228
891,10484860.341672203
2,1, 7,21, 0, 1,10.00,20.00,SummerDesignDay
8,14.171982153293495
10,63717751.14451056
891,9234096.22268641
2,1, 7,21, 0, 1,20.00,30.00,SummerDesignDay
8,14.125744780286427
10,63607765.328629869
891,18819701.839279254
2,1, 7,21, 0, 1,30.00,40.00,SummerDesignDay
8,14.079436086331978
10,63495500.918510418
891,19194704.560221744
2,1, 7,21, 0, 1,40.00,50.00,SummerDesignDay
8,14.033050387896898
10,63380629.63149683
891,19225527.447209274
2,1, 7,21, 0, 1,50.00,60.00,SummerDesignDay
8,13.986581233564835
10,63267628.53325229
891,19256830.70085043
2,1, 7,21, 0, 1, 0.00,60.00,SummerDesignDay
1125,23.772934852480704
1165,24.730012217307089
1205,22.935685122885663
1245,23.0579018193162
1285,23.998547884258128
1325,25.210354196498533
1365,24.36802982293821
1405,24.067497983206818
1445,23.661336889145465
1485,23.750815131541306
1525,23.998530086092328
1565,24.960692001935486
1605,24.298184307422799
1645,25.013557744558484
1685,25.043901286051569
1725,25.20098274096082
1765,26.601602660387269
1805,25.959037027282205
1845,24.875390968726447
1885,25.96908988295679
2,1, 7,21, 0, 2, 0.00,10.00,SummerDesignDay
8,13.95555882260429
10,56638166.958614718
891,6906931.065256748
2,1, 7,21, 0, 2,10.00,20.00,SummerDesignDay
8,13.924507755336454
10,56467989.74714584
891,11555672.746323465
2,1, 7,21, 0, 2,20.00,30.00,SummerDesignDay
8,13.893416042989206
10,56437250.65303794
891,18402133.49172286
2,1, 7,21, 0, 2,30.00,40.00,SummerDesignDay
8,13.862289589689029
10,56403446.678852718
891,18444927.088767776
2,1, 7,21, 0, 2,40.00,50.00,SummerDesignDay
8,13.831134407608739
10,56368312.46492311
891,17158140.32575132
2,1, 7,21, 0, 2,50.00,60.00,SummerDesignDay
8,13.799938415548118
10,56333031.84679627
891,5587625.0245473659
2,1, 7,21, 0, 2, 0.00,60.00,SummerDesignDay
1125,23.51099994026603
1165,24.60969530982165
1205,22.68296829103402
1245,22.807631081519579
1285,23.99854937066247
1325,25.063971673196638
1365,24.091661322573346
1405,23.80967944380885
1445,23.426454082413028
1485,23.521373279462496
1525,24.625163990885328
1565,24.549873735177859
1605,23.918621471229259
1645,24.691524032963899
1685,24.723610873355296
1725,24.853400930112629
1765,26.369474419208719
1805,25.73240552060588
1845,24.560232022297155
1885,25.7303423020717
2,1, 7,21, 0, 3, 0.00,10.00,SummerDesignDay
8,13.776521671948676
10,52075759.03307753
891,12114905.528853365
2,1, 7,21, 0, 3,10.00,20.00,SummerDesignDay
8,13.753085235778466
10,52053733.55353144
891,11396383.066900246
2,1, 7,21, 0, 3,20.00,30.00,SummerDesignDay
8,13.729636002354969
10,52010729.82248478
891,4252681.959259283
2,1, 7,21, 0, 3,30.00,40.00,SummerDesignDay
8,13.706147375533054
10,51995081.922746609
891,15665679.171717246
2,1, 7,21, 0, 3,40.00,50.00,SummerDesignDay
8,13.682651961920304
10,51952950.46775323
891,12000.0
2,1, 7,21, 0, 3,50.00,60.00,SummerDesignDay
8,13.659136670643687
10,51934387.93920384
891,15645780.541479372
2,1, 7,21, 0, 3, 0.00,60.00,SummerDesignDay
1125,23.30131403828778
1165,24.47549631766233
1205,22.48333280147528
1245,22.61008561126559
1285,23.998549532145885
1325,24.934834345374765
1365,23.86232968574677
1405,23.598359248316958
1445,23.242278051195883
1485,23.336610644748466
1525,24.31087684784111
1565,24.210885137320195
1605,23.60483505690827
1645,24.417572213652944
1685,24.4502106665901
1725,24.552920603410447
1765,26.153091085516207
1805,25.527945896192479
1845,24.292247336359634
1885,25.514379681147604
2,1, 7,21, 0, 4, 0.00,10.00,SummerDesignDay
8,13.63560137410855
10,51895479.02418679
891,12000.0
2,1, 7,21, 0, 4,10.00,20.00,SummerDesignDay
8,13.612040802606578
10,51873077.6228731
891,15626372.621076834
2,1, 7,21, 0, 4,20.00,30.00,SummerDesignDay
8,13.58846620506876
10,51837845.05282869
891,12000.0
2,1, 7,21, 0, 4,30.00,40.00,SummerDesignDay
8,13.56487178447336
10,51811547.3203409
891,15606031.922428327
2,1, 7,21, 0, 4,40.00,50.00,SummerDesignDay
8,13.541257354069103
10,51780002.27941551
891,12000.0
2,1, 7,21, 0, 4,50.00,60.00,SummerDesignDay
8,13.517617463812285
10,51749759.80738423
891,15584640.724067543
2,1, 7,21, 0, 4, 0.00,60.00,SummerDesignDay
1125,23.113977058999013
1165,24.34701215196208
1205,22.305950310373349
1245,22.43489150757387
1285,23.99854957665623
1325,24.81199768408372
1365,23.651742914995766
1405,23.40542234445749
1445,23.076124949002464
1485,23.167546026947638
1525,23.98667661690186
1565,23.916063585309194
1605,23.31568155612869
1645,24.17210353878382
1685,24.204719900891197
1725,24.280958750564424
1765,25.94489602121652
1805,25.33652035959918
1845,24.048605420710574
1885,25.3096814802088
2,1, 7,21, 0, 5, 0.00,10.00,SummerDesignDay
8,13.50185415824011
10,51725218.6755107
891,12000.0
2,1, 7,21, 0, 5,10.00,20.00,SummerDesignDay
8,13.486076034032447
10,51694674.61567518
891,15562065.396938544
2,1, 7,21, 0, 5,20.00,30.00,SummerDesignDay
8,13.470289340350983
10,51674790.01538281
891,12000.0
2,1, 7,21, 0, 5,30.00,40.00,SummerDesignDay
8,13.454493322631063
10,51641866.810557607
891,15538154.218630735
2,1, 7,21, 0, 5,40.00,50.00,SummerDesignDay
8,13.438688835118548
10,51628446.42457838
891,4331545.160429969
2,1, 7,21, 0, 5,50.00,60.00,SummerDesignDay
8,13.422888173889437
10,51594970.17807348
891,11242918.108061208
2,1, 7,21, 0, 5, 0.00,60.00,SummerDesignDay
1125,22.939999102261269
1165,24.222132069027436
1205,22.141991545622859
1245,22.273332191622744
1285,23.998548382437133
1325,24.697312103651787
1365,23.458552425083768
1405,23.323905946202019
1445,22.98249371792575
1485,23.00803595511464
1525,23.899548010248407
1565,23.690517933920586
1605,23.052280684014109
1645,24.00499522744253
1685,24.19215645053343
1725,24.08811765474169
1765,25.750472200505809
1805,25.167410573169034
1845,23.970469402898777
1885,25.213416578805224
2,1, 7,21, 0, 6, 0.00,10.00,SummerDesignDay
8,13.438688835118548
10,51600658.7092249
891,9744058.377170749
2,1, 7,21, 0, 6,10.00,20.00,SummerDesignDay
8,13.454493322631063
10,51582717.28577436
891,5887467.332310025
2,1, 7,21, 0, 6,20.00,30.00,SummerDesignDay
8,13.470289340350983
10,51592190.00887969
891,14654985.423925367
2,1, 7,21, 0, 6,30.00,40.00,SummerDesignDay
8,13.486076034032447
10,51576713.42682608
891,1019718.4559161129
2,1, 7,21, 0, 6,40.00,50.00,SummerDesignDay
8,13.50185415824011
10,51585129.2502727
891,15652003.561251814
2,1, 7,21, 0, 6,50.00,60.00,SummerDesignDay
8,13.517617463812285
10,51572839.52453613
891,12000.0
2,1, 7,21, 0, 6, 0.00,60.00,SummerDesignDay
1125,22.843469932704229
1165,24.126158486143909
1205,22.04954258598005
1245,22.183021430850528
1285,23.998538930597989
1325,24.62954734329762
1365,23.348281947217715
1405,23.652522886287163
1445,23.012427287592094
1485,22.920184105897424
1525,23.908443734234966
1565,23.7074153316056
1605,22.90432513797923
1645,24.17313426461239
1685,24.97291947856715
1725,24.22603141754604
1765,25.66325160904648
1805,25.145280604696084
1845,24.275821781647538
1885,25.54486496320189
2,1, 7,21, 0, 7, 0.00,10.00,SummerDesignDay
8,13.572736920571789
10,54720848.93741435
891,16029227.646292165
2,1, 7,21, 0, 7,10.00,20.00,SummerDesignDay
8,13.627748229152554
10,53342840.77659691
891,360174.20584194766
2,1, 7,21, 0, 7,20.00,30.00,SummerDesignDay
8,13.682651961920304
10,53782364.05012973
891,15610585.361452399
2,1, 7,21, 0, 7,30.00,40.00,SummerDesignDay
8,13.737448093244995
10,54808019.701188709
891,12000.0
2,1, 7,21, 0, 7,40.00,50.00,SummerDesignDay
8,13.792137011831216
10,54259142.59667228
891,15590783.562470807
2,1, 7,21, 0, 7,50.00,60.00,SummerDesignDay
8,13.846719282840333
10,55173465.545209359
891,12000.0
2,1, 7,21, 0, 7, 0.00,60.00,SummerDesignDay
1125,22.91704096135921
1165,24.103818728967693
1205,22.10977056752745
1245,22.243701287567565
1285,23.99864214449291
1325,23.976507188699089
1365,23.382932828522184
1405,24.122917746567379
1445,23.04911130878786
1485,22.97529006117613
1525,23.802020878504338
1565,24.0435932471578
1605,22.966964751135238
1645,24.64049317850773
1685,25.98288521327181
1725,24.656135256313094
1765,25.697306252887203
1805,25.268784997301549
1845,24.641942300372464
1885,26.027059271167315
2,1, 7,21, 0, 8, 0.00,10.00,SummerDesignDay
8,13.978831900527043
10,100714712.39419459
891,22046386.641846528
2,1, 7,21, 0, 8,10.00,20.00,SummerDesignDay
8,14.110321014287419
10,70673952.91139908
891,1310710.8290035185
2,1, 7,21, 0, 8,20.00,30.00,SummerDesignDay
8,14.241191509616986
10,92448777.46316178
891,14433071.289778032
2,1, 7,21, 0, 8,30.00,40.00,SummerDesignDay
8,14.371447531304272
10,91917937.55228418
891,11155486.473448448
2,1, 7,21, 0, 8,40.00,50.00,SummerDesignDay
8,14.501093766564925
10,93302064.55789712
891,4684097.373038359
2,1, 7,21, 0, 8,50.00,60.00,SummerDesignDay
8,14.630134792273804
10,96421645.56183569
891,15838198.994422334
2,1, 7,21, 0, 8, 0.00,60.00,SummerDesignDay
1125,23.603990728335928
1165,23.985949012629346
1205,22.419559794936359
1245,22.54784088664132
1285,23.998672574340494
1325,23.99994945990636
1365,23.649314225659606
1405,23.995463957047617
1445,23.341452491188986
1485,23.258638200240524
1525,23.749980029501918
1565,25.071340105277345
1605,23.668386200574088
1645,23.983488825253166
1685,25.859834872855005
1725,23.96824504175859
1765,25.063679063066947
1805,24.533699422437825
1845,24.115274834646458
1885,25.543161671720254
2,1, 7,21, 0, 9, 0.00,10.00,SummerDesignDay
8,14.773641492809972
10,223456620.6597471
891,9252431.438756507
2,1, 7,21, 0, 9,10.00,20.00,SummerDesignDay
8,14.91640948124148
10,230079773.10905916
891,9879628.881670485
2,1, 7,21, 0, 9,20.00,30.00,SummerDesignDay
8,15.05843890714102
10,234755705.48777617
891,19118003.32700279
2,1, 7,21, 0, 9,30.00,40.00,SummerDesignDay
8,15.199735893563798
10,238901268.65284867
891,19151105.285212775
2,1, 7,21, 0, 9,40.00,50.00,SummerDesignDay
8,15.340306256439395
10,243037978.56208859
891,19091751.298235138
2,1, 7,21, 0, 9,50.00,60.00,SummerDesignDay
8,15.48015101768072
10,248215398.94370456
891,17447877.01643604
2,1, 7,21, 0, 9, 0.00,60.00,SummerDesignDay
1125,23.999463982090434
1165,23.999910681545136
1205,23.52080100786411
1245,23.616475868648327
1285,23.999163568716289
1325,23.999936135788457
1365,23.99562625492183
1405,23.999823624425049
1445,23.958031208650409
1485,23.935423258684524
1525,23.768523568260709
1565,27.060739992780186
1605,23.999537658107156
1645,23.999894050335145
1685,26.09130965545941
1725,23.92971234798415
1765,24.791057099843984
1805,24.195222940912776
1845,24.271236841230804
1885,25.320415434267689
2,1, 7,21, 0,10, 0.00,10.00,SummerDesignDay
8,15.60467292907716
10,349991628.38775709
891,24469789.213231714
2,1, 7,21, 0,10,10.00,20.00,SummerDesignDay
8,15.72862731650033
10,356357797.0537744
891,26335563.946898775
2,1, 7,21, 0,10,20.00,30.00,SummerDesignDay
8,15.852017409284228
10,360821884.7530628
891,26346818.913936225
2,1, 7,21, 0,10,30.00,40.00,SummerDesignDay
8,15.974848118364367
10,365257114.47660276
891,26362966.498981276
2,1, 7,21, 0,10,40.00,50.00,SummerDesignDay
8,16.097123145563505
10,369589855.1595577
891,26371955.765289058
2,1, 7,21, 0,10,50.00,60.00,SummerDesignDay
8,16.218846351168599
10,373930817.2631999
891,26341907.773515949
2,1, 7,21, 0,10, 0.00,60.00,SummerDesignDay
1125,23.999338499103826
1165,23.999324791333636
1205,23.999602961289417
1245,23.99969409451153
1285,23.9989259239333
1325,23.999912162310733
1365,23.999759030897864
1405,23.99963001410033
1445,23.99965325196663
1485,23.999644143393437
1525,23.986243108660529
1565,29.233042897150697
1605,23.999521768216284
1645,23.99969096036668
1685,25.949925748163165
1725,23.75916122412178
1765,24.59117968798135
1805,23.914729302216228
1845,24.3527597044457
1885,24.892857714230798
2,1, 7,21, 0,11, 0.00,10.00,SummerDesignDay
8,16.325793027093189
10,426093344.5398283
891,35358727.68440989
2,1, 7,21, 0,11,10.00,20.00,SummerDesignDay
8,16.432322158488288
10,431298971.12955316
891,44785732.036813419
2,1, 7,21, 0,11,20.00,30.00,SummerDesignDay
8,16.538424180249178
10,435659566.3258605
891,31271263.669620929
2,1, 7,21, 0,11,30.00,40.00,SummerDesignDay
8,16.644108396469087
10,440019808.55183497
891,31143571.03931375
2,1, 7,21, 0,11,40.00,50.00,SummerDesignDay
8,16.749376736593655
10,444525801.3788508
891,31118383.91665751
2,1, 7,21, 0,11,50.00,60.00,SummerDesignDay
8,16.854232613237156
10,448901979.64570257
891,40744561.914259109
2,1, 7,21, 0,11, 0.00,60.00,SummerDesignDay
1125,23.999053658207417
1165,23.99889709235417
1205,23.999024370581869
1245,23.9993356624162
1285,23.998447539566489
1325,23.999883132204745
1365,23.999491902188223
1405,23.999368320548517
1445,23.99931063434569
1485,23.999294712657073
1525,23.9993284351149
1565,30.847600407942797
1605,23.999287860054485
1645,23.999338471449634
1685,25.278860716818316
1725,23.449774659943605
1765,24.383766250531619
1805,23.738167206087753
1845,24.248303018053524
1885,24.23962559217936
2,1, 7,21, 0,12, 0.00,10.00,SummerDesignDay
8,16.92390823520069
10,455774932.37751689
891,35369158.84195187
2,1, 7,21, 0,12,10.00,20.00,SummerDesignDay
8,16.99340178950456
10,458763963.29409345
891,31933578.82242473
2,1, 7,21, 0,12,20.00,30.00,SummerDesignDay
8,17.06272006743463
10,461815613.94267407
891,28646115.800727279
2,1, 7,21, 0,12,30.00,40.00,SummerDesignDay
8,17.131853229172639
10,464703920.3662225
891,28634985.06569153
2,1, 7,21, 0,12,40.00,50.00,SummerDesignDay
8,17.200807172194087
10,467457447.851791
891,28622856.840945506
2,1, 7,21, 0,12,50.00,60.00,SummerDesignDay
8,17.269582116758607
10,470084013.9661093
891,28610505.28192062
2,1, 7,21, 0,12, 0.00,60.00,SummerDesignDay
1125,23.998946898281845
1165,23.99872446044439
1205,23.998881071212357
1245,23.9993110316106
1285,23.998452017515374
1325,23.999910029011394
1365,23.99944148503661
1405,23.999346287472588
1445,23.9992782167178
1485,23.999278998167218
1525,23.99875360282978
1565,32.125038393058087
1605,23.999186646017223
1645,23.999199987336295
1685,24.472816259012594
1725,23.14879708017736
1765,24.201873685770978
1805,23.658201820600657
1845,24.061345748473078
1885,23.620793014646343
2,1, 7,21, 0,13, 0.00,10.00,SummerDesignDay
8,17.32447360221357
10,473887517.1612945
891,31462822.571226829
2,1, 7,21, 0,13,10.00,20.00,SummerDesignDay
8,17.379251291230806
10,476281804.28946539
891,41959578.150298457
2,1, 7,21, 0,13,20.00,30.00,SummerDesignDay
8,17.433921312061729
10,478359548.93418756
891,37073477.89428754
2,1, 7,21, 0,13,30.00,40.00,SummerDesignDay
8,17.488473222557489
10,480324406.0495903
891,30652101.54382825
2,1, 7,21, 0,13,40.00,50.00,SummerDesignDay
8,17.542913447755134
10,482187464.43068817
891,30632520.52975812
2,1, 7,21, 0,13,50.00,60.00,SummerDesignDay
8,17.59724609886134
10,483922082.47539559
891,30610420.093653177
2,1, 7,21, 0,13, 0.00,60.00,SummerDesignDay
1125,23.999058495278349
1165,23.99865354231903
1205,23.998689235015165
1245,23.99921632605222
1285,23.99846003165068
1325,23.999957874787154
1365,23.99941950111545
1405,23.99932181037209
1445,23.999271049369516
1485,23.99920227675364
1525,23.998276442563357
1565,33.0547157297601
1605,23.999262590077227
1645,23.99917212270076
1685,24.07537030664915
1725,22.991573980271928
1765,24.16962479972287
1805,23.679565660816555
1845,23.953304024643925
1885,23.331547722848897
2,1, 7,21, 0,14, 0.00,10.00,SummerDesignDay
8,17.6311450462694
10,484477166.949391
891,48594011.76223892
2,1, 7,21, 0,14,10.00,20.00,SummerDesignDay
8,17.665000449016245
10,485739173.80459466
891,33135843.4677706
2,1, 7,21, 0,14,20.00,30.00,SummerDesignDay
8,17.698812743128934
10,486657509.65048089
891,32285403.58897924
2,1, 7,21, 0,14,30.00,40.00,SummerDesignDay
8,17.732582050940107
10,487567313.6305563
891,41690371.28325923
2,1, 7,21, 0,14,40.00,50.00,SummerDesignDay
8,17.766307345121004
10,488391696.2746477
891,40022196.98851951
2,1, 7,21, 0,14,50.00,60.00,SummerDesignDay
8,17.79999023167558
10,489084802.43749019
891,32294939.62597374
2,1, 7,21, 0,14, 0.00,60.00,SummerDesignDay
1125,23.99913719901768
1165,23.998588313511524
1205,23.998370507928148
1245,23.999081201308795
1285,23.998467647609048
1325,24.00004886787843
1365,23.99938374789156
1405,23.999374118076095
1445,23.99916118067647
1485,23.999052770713335
1525,23.998123203645805
1565,33.65977338867602
1605,23.999452693057525
1645,23.999226380659363
1685,23.99188135693224
1725,23.08814437397595
1765,24.303354046020716
1805,23.782358940286384
1845,23.978830912628998
1885,23.292613155815585
2,1, 7,21, 0,15, 0.00,10.00,SummerDesignDay
8,17.79999023167558
10,484143817.4939996
891,32527986.975544856
2,1, 7,21, 0,15,10.00,20.00,SummerDesignDay
8,17.79999023167558
10,483549251.90987458
891,48767984.889653209
2,1, 7,21, 0,15,20.00,30.00,SummerDesignDay
8,17.79999023167558
10,482863672.4222559
891,31866619.94097496
2,1, 7,21, 0,15,30.00,40.00,SummerDesignDay
8,17.79999023167558
10,482115247.7815307
891,31844422.376377658
2,1, 7,21, 0,15,40.00,50.00,SummerDesignDay
8,17.79999023167558
10,481341261.63648226
891,36488838.8783978
2,1, 7,21, 0,15,50.00,60.00,SummerDesignDay
8,17.79999023167558
10,480474747.2218778
891,44765794.891091119
2,1, 7,21, 0,15, 0.00,60.00,SummerDesignDay
1125,23.99892756570272
1165,23.9985100903054
1205,23.99844925984128
1245,23.999219177766439
1285,23.998476158067548
1325,24.00005415348456
1365,23.999451248639237
1405,23.999484478338258
1445,23.99924830173934
1485,23.999180189933907
1525,23.99834385487587
1565,33.93156252239636
1605,23.999161451125798
1645,23.99945240518984
1685,24.091373335830267
1725,23.70745291316808
1765,24.54197652415392
1805,23.915300163584147
1845,24.127506453527784
1885,23.438584500793636
2,1, 7,21, 0,16, 0.00,10.00,SummerDesignDay
8,17.759562446305357
10,480830281.8760384
891,30065115.848628556
2,1, 7,21, 0,16,10.00,20.00,SummerDesignDay
8,17.71907809634183
10,478819411.3147049
891,29826385.857086958
2,1, 7,21, 0,16,20.00,30.00,SummerDesignDay
8,17.67853788661001
10,476866093.85250559
891,29808829.448356853
2,1, 7,21, 0,16,30.00,40.00,SummerDesignDay
8,17.63791796367351
10,474791571.52729108
891,30119083.224457787
2,1, 7,21, 0,16,40.00,50.00,SummerDesignDay
8,17.59724609886134
10,472655868.41999956
891,38399986.16273948
2,1, 7,21, 0,16,50.00,60.00,SummerDesignDay
8,17.55650676726033
10,470635290.40707299
891,38474818.15788459
2,1, 7,21, 0,16, 0.00,60.00,SummerDesignDay
1125,23.998687517796858
1165,23.998402966781247
1205,23.99836344652373
1245,23.999198341255555
1285,23.998485875974639
1325,23.99995549449258
1365,23.999325358227848
1405,23.999386034830008
1445,23.999225964991429
1485,23.999161626041646
1525,23.998775408518683
1565,33.81025537619135
1605,23.998837371673959
1645,23.999524407813629
1685,24.307378021467419
1725,24.657042329605564
1765,25.00823763502663
1805,24.175285560204374
1845,24.385862782057889
1885,23.81147212204989
2,1, 7,21, 0,17, 0.00,10.00,SummerDesignDay
8,17.50209486331892
10,462759500.3681223
891,29917589.433395827
2,1, 7,21, 0,17,10.00,20.00,SummerDesignDay
8,17.447570789624618
10,459939010.35591897
891,27395608.05897016
2,1, 7,21, 0,17,20.00,30.00,SummerDesignDay
8,17.392929544208135
10,457663438.862191
891,27387108.85530888
2,1, 7,21, 0,17,30.00,40.00,SummerDesignDay
8,17.33818013976614
10,455398622.2751829
891,27378308.29972433
2,1, 7,21, 0,17,40.00,50.00,SummerDesignDay
8,17.283317298559309
10,453221445.560144
891,27369391.92880646
2,1, 7,21, 0,17,50.00,60.00,SummerDesignDay
8,17.22833552437677
10,451032337.45893356
891,27360362.50825555
2,1, 7,21, 0,17, 0.00,60.00,SummerDesignDay
1125,23.99858491185377
1165,23.998746614200348
1205,23.998291545422636
1245,23.999086692442167
1285,23.998495488154036
1325,23.999927672922554
1365,23.999027638827799
1405,23.999167812390906
1445,23.999076899847215
1485,23.999023417853324
1525,23.999077771677276
1565,33.23553867363847
1605,23.99872485154684
1645,23.999571638008179
1685,24.45476774557056
1725,25.339278090084066
1765,25.474045372867964
1805,24.480431617952914
1845,24.549807417231574
1885,24.226565187102137
2,1, 7,21, 0,18, 0.00,10.00,SummerDesignDay
8,17.159453019160176
10,438246914.3711136
891,18818787.214842675
2,1, 7,21, 0,18,10.00,20.00,SummerDesignDay
8,17.090391773337136
10,435249718.1629068
891,19736517.951876649
2,1, 7,21, 0,18,20.00,30.00,SummerDesignDay
8,17.021151077964786
10,432550286.98138967
891,21879076.933356096
2,1, 7,21, 0,18,30.00,40.00,SummerDesignDay
8,16.951729380464653
10,429971806.47705188
891,21885934.517048435
2,1, 7,21, 0,18,40.00,50.00,SummerDesignDay
8,16.882126503829249
10,427436903.60746797
891,21893528.599620824
2,1, 7,21, 0,18,50.00,60.00,SummerDesignDay
8,16.812341807494034
10,424928050.3961893
891,21901157.890925364
2,1, 7,21, 0,18, 0.00,60.00,SummerDesignDay
1125,23.998698977904615
1165,23.999225140858248
1205,23.998284162212938
1245,23.998972485810879
1285,23.99850454275411
1325,23.999913635214797
1365,23.998961686203058
1405,23.99915202387091
1445,23.99894434542166
1485,23.998871970713738
1525,23.999171818431468
1565,32.181084204928129
1605,23.998703436191325
1645,23.999641145904226
1685,24.456524764456835
1725,25.64554929320769
1765,25.89710502096827
1805,24.822132154799289
1845,24.54509931761466
1885,24.618680556690206
2,1, 7,21, 0,19, 0.00,10.00,SummerDesignDay
8,16.707321072823203
10,279281565.257189
891,20743303.256170747
2,1, 7,21, 0,19,10.00,20.00,SummerDesignDay
8,16.601881826644556
10,274058058.32275357
891,20635702.14788074
2,1, 7,21, 0,19,20.00,30.00,SummerDesignDay
8,16.496030555252849
10,270105700.86860129
891,15041216.041236526
2,1, 7,21, 0,19,30.00,40.00,SummerDesignDay
8,16.389760181474104
10,266045521.3806636
891,14316610.698413289
2,1, 7,21, 0,19,40.00,50.00,SummerDesignDay
8,16.283067654262039
10,262506743.63965983
891,14220958.221008666
2,1, 7,21, 0,19,50.00,60.00,SummerDesignDay
8,16.17595057957811
10,259117601.678546
891,18241818.472309308
2,1, 7,21, 0,19, 0.00,60.00,SummerDesignDay
1125,23.999330201822258
1165,23.999389782520578
1205,23.999316722106703
1245,23.999503086672378
1285,23.998519744157837
1325,23.99992554768835
1365,23.99942446244907
1405,23.999576171016554
1445,23.999458392644713
1485,23.999379694369883
1525,23.998921239213617
1565,30.647820500300996
1605,23.99921906756751
1645,23.99984307207113
1685,24.330088230328696
1725,25.642058442118594
1765,26.02646330617023
1805,25.016948255485944
1845,24.388431172377904
1885,24.88272035937004
2,1, 7,21, 0,20, 0.00,10.00,SummerDesignDay
8,16.097123145563505
10,122541485.06954806
891,20848187.188228396
2,1, 7,21, 0,20,10.00,20.00,SummerDesignDay
8,16.018070242471564
10,122619216.81539092
891,24028323.48010234
2,1, 7,21, 0,20,20.00,30.00,SummerDesignDay
8,15.938779752340516
10,120283245.09174504
891,22995834.747268984
2,1, 7,21, 0,20,30.00,40.00,SummerDesignDay
8,15.85926152575189
10,121785869.23246312
891,20855750.69572286
2,1, 7,21, 0,20,40.00,50.00,SummerDesignDay
8,15.779503718563929
10,119208907.93382797
891,20896817.23740244
2,1, 7,21, 0,20,50.00,60.00,SummerDesignDay
8,15.699515709672767
10,119977141.30841258
891,16117361.412489005
2,1, 7,21, 0,20, 0.00,60.00,SummerDesignDay
1125,23.999811189561187
1165,23.999374048573445
1205,24.40452452916074
1245,24.492429464933438
1285,23.99894855334571
1325,23.99996184519351
1365,25.689555296009777
1405,25.128902902000694
1445,24.882052792733885
1485,24.80777260774455
1525,23.99883512609301
1565,29.091750528542265
1605,23.99976726973814
1645,25.767733257686943
1685,25.841620497481715
1725,27.053136620740117
1765,26.855350816365577
1805,26.20032812290849
1845,25.853895051477193
1885,26.212548954442214
2,1, 7,21, 0,21, 0.00,10.00,SummerDesignDay
8,15.63389147320404
10,118933361.90126166
891,20890841.739041684
2,1, 7,21, 0,21,10.00,20.00,SummerDesignDay
8,15.56810827419793
10,117859009.85018958
891,21399636.712415548
2,1, 7,21, 0,21,20.00,30.00,SummerDesignDay
8,15.502170882753524
10,117027363.57526127
891,21388222.967503534
2,1, 7,21, 0,21,30.00,40.00,SummerDesignDay
8,15.436068032613852
10,116241083.96437118
891,21377187.31202179
2,1, 7,21, 0,21,40.00,50.00,SummerDesignDay
8,15.369804371206009
10,115481344.82174075
891,21365997.126866875
2,1, 7,21, 0,21,50.00,60.00,SummerDesignDay
8,15.303384603594449
10,114719163.55543411
891,21354636.337117994
2,1, 7,21, 0,21, 0.00,60.00,SummerDesignDay
1125,23.99982718176162
1165,23.9991666940909
1205,24.27830624715239
1245,24.40566678864231
1285,23.99852772422565
1325,23.999960635573243
1365,25.921277079086779
1405,25.342117814101653
1445,25.00324573348956
1485,24.911538300370279
1525,23.998147371400138
1565,27.8192706405916
1605,23.999840400477198
1645,26.51746428145408
1685,26.527898745323627
1725,27.194125469312146
1765,27.41900689327964
1805,26.853642753066397
1845,26.541102886681803
1885,26.903889049472128
2,1, 7,21, 0,22, 0.00,10.00,SummerDesignDay
8,15.236797685071274
10,88741482.4466057
891,21870466.666031
2,1, 7,21, 0,22,10.00,20.00,SummerDesignDay
8,15.170047891787942
10,88641191.16514866
891,23361304.221251586
2,1, 7,21, 0,22,20.00,30.00,SummerDesignDay
8,15.103134826860483
10,88304478.3280176
891,23252692.16466278
2,1, 7,21, 0,22,30.00,40.00,SummerDesignDay
8,15.036063385178485
10,88136519.18751037
891,23186534.820708254
2,1, 7,21, 0,22,40.00,50.00,SummerDesignDay
8,14.968821767219835
10,87934025.52274275