Program Version,EnergyPlus, Version 8.9.0-eba93e8e1b, YMD=2019.04.04 18:00
1,5,Environment Title[],Latitude[deg],Longitude[deg],Time Zone[],Elevation[m]
2,8,Day of Simulation[],Month[],Day of Month[],DST Indicator[1=yes 0=no],Hour[],StartMinute[],EndMinute[],DayType
3,5,Cumulative Day of Simulation[],Month[],Day of Month[],DST Indicator[1=yes 0=no],DayType  ! When Daily Report Variables Requested
4,2,Cumulative Days of Simulation[],Month[]  ! When Monthly Report Variables Requested
5,1,Cumulative Days of Simulation[] ! When Run Period Report Variables Requested
6,1,Calendar Year of Simulation[] ! When Annual Report Variables Requested
7,9,Environment,Site Outdoor Air Drybulb Temperature [C] !Monthly [Value,Min,Day,Hour,Minute,Max,Day,Hour,Minute]
8,1,Environment,Site Outdoor Air Wetbulb Temperature [C] !TimeStep
357,1,WHOLEBUILDING-OFFICE ZN,Zone Air Temperature [C] !Hourly
358,7,WHOLEBUILDING-OFFICE ZN,Zone Air Relative Humidity [%] !Daily [Value,Min,Hour,Minute,Max,Hour,Minute]
397,1,WHOLEBUILDING-PENITENTIARY ZN,Zone Air Temperature [C] !Hourly
398,7,WHOLEBUILDING-PENITENTIARY ZN,Zone Air Relative Humidity [%] !Daily [Value,Min,Hour,Minute,Max,Hour,Minute]
437,1,WHOLEBUILDING-PERFORMING ARTS THEATRE ZN,Zone Air Temperature [C] !Hourly
438,7,WHOLEBUILDING-PERFORMING ARTS THEATRE ZN,Zone Air Relative Humidity [%] !Daily [Value,Min,Hour,Minute,Max,Hour,Minute]
477,1,WHOLEBUILDING-POLICE STATION ZN,Zone Air Temperature [C] !Hourly
478,7,WHOLEBUILDING-POLICE STATION ZN,Zone Air Relative Humidity [%] !Daily [Value,Min,Hour,Minute,Max,Hour,Minute]
517,1,WHOLEBUILDING-POST OFFICE ZN,Zone Air Temperature [C] !Hourly
518,7,WHOLEBUILDING-POST OFFICE ZN,Zone Air Relative Humidity [%] !Daily [Value,Min,Hour,Minute,Max,Hour,Minute]
10,1,Electricity:Facility [J] !TimeStep
668,1,DistrictCooling:Facility [J] !TimeStep
631,1,DistrictHeating:Facility [J] !TimeStep
End of Data Dictionary
1,FORT MCMURRAY AP ANN CLG .4% CONDNS DB=>MWB,  56.65,-111.22,  -7.00, 369.10
2,1, 7,21, 0, 1, 0.00,10.00,SummerDesignDay
8,14.218136923962174
10,34484402.824908498
631,0.0
668,22609180.747933307
2,1, 7,21, 0, 1,10.00,20.00,SummerDesignDay
8,14.171982153293495
10,34484402.824908498
631,0.0
668,22409177.109685419
2,1, 7,21, 0, 1,20.00,30.00,SummerDesignDay
8,14.125744780286427
10,34484402.824908498
631,0.0
668,22212666.69003411
2,1, 7,21, 0, 1,30.00,40.00,SummerDesignDay
8,14.079436086331978
10,34484402.824908498
631,0.0
668,22018053.727216796
2,1, 7,21, 0, 1,40.00,50.00,SummerDesignDay
8,14.033050387896898
10,34484402.824908498
631,0.0
668,21825750.414933236
2,1, 7,21, 0, 1,50.00,60.00,SummerDesignDay
8,13.986581233564835
10,34484402.824908498
631,0.0
668,21635866.664184795
2,1, 7,21, 0, 1, 0.00,60.00,SummerDesignDay
357,22.958785424605055
397,24.000000000000026
437,21.891793119309655
477,24.00000000000003
517,22.125170679683007
2,1, 7,21, 0, 2, 0.00,10.00,SummerDesignDay
8,13.95555882260429
10,34484402.824908498
631,0.0
668,21491051.748702054
2,1, 7,21, 0, 2,10.00,20.00,SummerDesignDay
8,13.924507755336454
10,34484402.824908498
631,0.0
668,21348379.902867639
2,1, 7,21, 0, 2,20.00,30.00,SummerDesignDay
8,13.893416042989206
10,34484402.824908498
631,0.0
668,21209134.27270984
2,1, 7,21, 0, 2,30.00,40.00,SummerDesignDay
8,13.862289589689029
10,34484402.824908498
631,0.0
668,21071404.87297491
2,1, 7,21, 0, 2,40.00,50.00,SummerDesignDay
8,13.831134407608739
10,34484402.824908498
631,0.0
668,20935751.459938457
2,1, 7,21, 0, 2,50.00,60.00,SummerDesignDay
8,13.799938415548118
10,34484402.824908498
631,0.0
668,20802397.590198615
2,1, 7,21, 0, 2, 0.00,60.00,SummerDesignDay
357,22.626986105061815
397,24.00000000000001
437,21.557945825502555
477,24.00000000000003
517,21.741686317167127
2,1, 7,21, 0, 3, 0.00,10.00,SummerDesignDay
8,13.776521671948676
10,34484402.824908498
631,0.0
668,20692633.73508075
2,1, 7,21, 0, 3,10.00,20.00,SummerDesignDay
8,13.753085235778466
10,34484402.824908498
631,0.0
668,20584907.443171078
2,1, 7,21, 0, 3,20.00,30.00,SummerDesignDay
8,13.729636002354969
10,34484402.824908498
631,0.0
668,20479150.340248243
2,1, 7,21, 0, 3,30.00,40.00,SummerDesignDay
8,13.706147375533054
10,34484402.824908498
631,0.0
668,20375320.301206616
2,1, 7,21, 0, 3,40.00,50.00,SummerDesignDay
8,13.682651961920304
10,34484402.824908498
631,0.0
668,20273402.18113505
2,1, 7,21, 0, 3,50.00,60.00,SummerDesignDay
8,13.659136670643687
10,34484402.824908498
631,0.0
668,20174571.35186412
2,1, 7,21, 0, 3, 0.00,60.00,SummerDesignDay
357,22.382234164853228
397,24.000000000000015
437,21.305516706914007
477,24.000000000000033
517,21.461885306027825
2,1, 7,21, 0, 4, 0.00,10.00,SummerDesignDay
8,13.63560137410855
10,34484402.824908498
631,0.0
668,20076677.059348555
2,1, 7,21, 0, 4,10.00,20.00,SummerDesignDay
8,13.612040802606578
10,34484402.824908498
631,0.0
668,19979983.53620249
2,1, 7,21, 0, 4,20.00,30.00,SummerDesignDay
8,13.58846620506876
10,34484402.824908498
631,0.0
668,19884702.342112
2,1, 7,21, 0, 4,30.00,40.00,SummerDesignDay
8,13.56487178447336
10,34484402.824908498
631,0.0
668,19790656.731655867
2,1, 7,21, 0, 4,40.00,50.00,SummerDesignDay
8,13.541257354069103
10,34484402.824908498
631,0.0
668,19697717.916743384
2,1, 7,21, 0, 4,50.00,60.00,SummerDesignDay
8,13.517617463812285
10,34484402.824908498
631,0.0
668,19605749.65263283
2,1, 7,21, 0, 4, 0.00,60.00,SummerDesignDay
357,22.194710999565357
397,24.00000000000001
437,21.108482108207818
477,24.00000000000001
517,21.246259757783127
2,1, 7,21, 0, 5, 0.00,10.00,SummerDesignDay
8,13.50185415824011
10,34484402.824908498
631,0.0
668,19536092.59543299
2,1, 7,21, 0, 5,10.00,20.00,SummerDesignDay
8,13.486076034032447
10,34484402.824908498
631,0.0
668,19467220.745062397
2,1, 7,21, 0, 5,20.00,30.00,SummerDesignDay
8,13.470289340350983
10,34484402.824908498
631,0.0
668,19400541.92603033
2,1, 7,21, 0, 5,30.00,40.00,SummerDesignDay
8,13.454493322631063
10,34484402.824908498
631,0.0
668,19334028.224302178
2,1, 7,21, 0, 5,40.00,50.00,SummerDesignDay
8,13.438688835118548
10,34484402.824908498
631,0.0
668,19268065.506944967
2,1, 7,21, 0, 5,50.00,60.00,SummerDesignDay
8,13.422888173889437
10,34484402.824908498
631,0.0
668,19203047.13511505
2,1, 7,21, 0, 5, 0.00,60.00,SummerDesignDay
357,22.042714505401503
397,24.00000000000001
437,20.945296046390337
477,24.0
517,21.067938720386438
2,1, 7,21, 0, 6, 0.00,10.00,SummerDesignDay
8,13.438688835118548
10,34484402.824908498
631,0.0
668,19224519.30884001
2,1, 7,21, 0, 6,10.00,20.00,SummerDesignDay
8,13.454493322631063
10,34484402.824908498
631,0.0
668,19246905.431365689
2,1, 7,21, 0, 6,20.00,30.00,SummerDesignDay
8,13.470289340350983
10,34484402.824908498
631,0.0
668,19272079.314225735
2,1, 7,21, 0, 6,30.00,40.00,SummerDesignDay
8,13.486076034032447
10,34484402.824908498
631,0.0
668,19298050.762911209
2,1, 7,21, 0, 6,40.00,50.00,SummerDesignDay
8,13.50185415824011
10,34484402.824908498
631,0.0
668,19327452.490030398
2,1, 7,21, 0, 6,50.00,60.00,SummerDesignDay
8,13.517617463812285
10,34484402.824908498
631,0.0
668,19357987.339908877
2,1, 7,21, 0, 6, 0.00,60.00,SummerDesignDay
357,21.948807474255717
397,23.99999999999999
437,20.851472271756433
477,24.000000000000044
517,20.970165615194384
2,1, 7,21, 0, 7, 0.00,10.00,SummerDesignDay
8,13.572736920571789
10,34484402.824908498
631,0.0
668,19499299.263934047
2,1, 7,21, 0, 7,10.00,20.00,SummerDesignDay
8,13.627748229152554
10,34484402.824908498
631,0.0
668,19641584.471938395
2,1, 7,21, 0, 7,20.00,30.00,SummerDesignDay
8,13.682651961920304
10,34484402.824908498
631,0.0
668,19781634.180037694
2,1, 7,21, 0, 7,30.00,40.00,SummerDesignDay
8,13.737448093244995
10,34484402.824908498
631,0.0
668,19926431.584355304
2,1, 7,21, 0, 7,40.00,50.00,SummerDesignDay
8,13.792137011831216
10,34484402.824908498
631,0.0
668,20076742.938890168
2,1, 7,21, 0, 7,50.00,60.00,SummerDesignDay
8,13.846719282840333
10,34484402.824908498
631,0.0
668,20231522.63536054
2,1, 7,21, 0, 7, 0.00,60.00,SummerDesignDay
357,21.970677603718998
397,24.000000000000019
437,20.903636357230693
477,24.00000000000001
517,21.043230951999715
2,1, 7,21, 0, 8, 0.00,10.00,SummerDesignDay
8,13.978831900527043
10,42399778.39853449
631,12999932.23071825
668,20620071.24409073
2,1, 7,21, 0, 8,10.00,20.00,SummerDesignDay
8,14.110321014287419
10,42399778.39853449
631,0.0
668,21068409.197871448
2,1, 7,21, 0, 8,20.00,30.00,SummerDesignDay
8,14.241191509616986
10,42399778.39853449
631,0.0
668,21573470.471715426
2,1, 7,21, 0, 8,30.00,40.00,SummerDesignDay
8,14.371447531304272
10,42399778.39853449
631,0.0
668,22089292.222190296
2,1, 7,21, 0, 8,40.00,50.00,SummerDesignDay
8,14.501093766564925
10,42399778.39853449
631,0.0
668,22597746.061203794
2,1, 7,21, 0, 8,50.00,60.00,SummerDesignDay
8,14.630134792273804
10,42399778.39853449
631,0.0
668,23098044.962948264
2,1, 7,21, 0, 8, 0.00,60.00,SummerDesignDay
357,22.775647313941975
397,24.000000000000005
437,21.21026788603596
477,24.000000000000005
517,22.54745430728727
2,1, 7,21, 0, 9, 0.00,10.00,SummerDesignDay
8,14.773641492809972
10,72191226.32173389
631,6630539.92883799
668,26357973.95706601
2,1, 7,21, 0, 9,10.00,20.00,SummerDesignDay
8,14.91640948124148
10,72191226.32173389
631,0.0
668,49125387.836141299
2,1, 7,21, 0, 9,20.00,30.00,SummerDesignDay
8,15.05843890714102
10,72191226.32173389
631,0.0
668,52340470.74496567
2,1, 7,21, 0, 9,30.00,40.00,SummerDesignDay
8,15.199735893563798
10,72191226.32173389
631,0.0
668,52939139.25751053
2,1, 7,21, 0, 9,40.00,50.00,SummerDesignDay
8,15.340306256439395
10,72191226.32173389
631,0.0
668,58145720.48594481
2,1, 7,21, 0, 9,50.00,60.00,SummerDesignDay
8,15.48015101768072
10,72191226.32173389
631,0.0
668,65379500.78071211
2,1, 7,21, 0, 9, 0.00,60.00,SummerDesignDay
357,23.95715512311733
397,24.00000000000001
437,23.265524109316418
477,24.00000000000001
517,23.87929175687185
2,1, 7,21, 0,10, 0.00,10.00,SummerDesignDay
8,15.60467292907716
10,83696656.12472485
631,0.0
668,83531607.4795361
2,1, 7,21, 0,10,10.00,20.00,SummerDesignDay
8,15.72862731650033
10,83696656.12472485
631,0.0
668,82713095.13182506
2,1, 7,21, 0,10,20.00,30.00,SummerDesignDay
8,15.852017409284228
10,83696656.12472485
631,0.0
668,85580346.82778067
2,1, 7,21, 0,10,30.00,40.00,SummerDesignDay
8,15.974848118364367
10,83696656.12472485
631,0.0
668,87395932.70470645
2,1, 7,21, 0,10,40.00,50.00,SummerDesignDay
8,16.097123145563505
10,83696656.12472485
631,0.0
668,89019848.4090468
2,1, 7,21, 0,10,50.00,60.00,SummerDesignDay
8,16.218846351168599
10,83696656.12472485
631,0.0
668,90529762.9837514
2,1, 7,21, 0,10, 0.00,60.00,SummerDesignDay
357,23.999999999999984
397,24.000000000000019
437,23.99999765716497
477,24.00000000000001
517,23.999999999999706
2,1, 7,21, 0,11, 0.00,10.00,SummerDesignDay
8,16.325793027093189
10,83696656.12472485
631,0.0
668,94927321.22120089
2,1, 7,21, 0,11,10.00,20.00,SummerDesignDay
8,16.432322158488288
10,83696656.12472485
631,0.0
668,96323762.04375662
2,1, 7,21, 0,11,20.00,30.00,SummerDesignDay
8,16.538424180249178
10,83696656.12472485
631,0.0
668,97602231.24634427
2,1, 7,21, 0,11,30.00,40.00,SummerDesignDay
8,16.644108396469087
10,83696656.12472485
631,0.0
668,98871487.4483656
2,1, 7,21, 0,11,40.00,50.00,SummerDesignDay
8,16.749376736593655
10,83696656.12472485
631,0.0
668,100105710.76394536
2,1, 7,21, 0,11,50.00,60.00,SummerDesignDay
8,16.854232613237156
10,83696656.12472485
631,0.0
668,101292751.73038647
2,1, 7,21, 0,11, 0.00,60.00,SummerDesignDay
357,24.0
397,24.0
437,23.999999999999877
477,24.00000000000004
517,24.0
2,1, 7,21, 0,12, 0.00,10.00,SummerDesignDay
8,16.92390823520069
10,83696656.12472485
631,0.0
668,102095820.78186089
2,1, 7,21, 0,12,10.00,20.00,SummerDesignDay
8,16.99340178950456
10,83696656.12472485
631,0.0
668,102887284.70468693
2,1, 7,21, 0,12,20.00,30.00,SummerDesignDay
8,17.06272006743463
10,83696656.12472485
631,0.0
668,103666157.80759359
2,1, 7,21, 0,12,30.00,40.00,SummerDesignDay
8,17.131853229172639
10,83696656.12472485
631,0.0
668,104434219.88283913
2,1, 7,21, 0,12,40.00,50.00,SummerDesignDay
8,17.200807172194087
10,83696656.12472485
631,0.0
668,105193691.25813627
2,1, 7,21, 0,12,50.00,60.00,SummerDesignDay
8,17.269582116758607
10,83696656.12472485
631,0.0
668,105946448.19222176
2,1, 7,21, 0,12, 0.00,60.00,SummerDesignDay
357,24.00000000000001
397,24.000000000000019
437,24.00000000000001
477,24.00000000000003
517,24.00000000000001
2,1, 7,21, 0,13, 0.00,10.00,SummerDesignDay
8,17.32447360221357
10,83696656.12472485
631,0.0
668,105754444.82047805
2,1, 7,21, 0,13,10.00,20.00,SummerDesignDay
8,17.379251291230806
10,83696656.12472485
631,0.0
668,106307213.8850047
2,1, 7,21, 0,13,20.00,30.00,SummerDesignDay
8,17.433921312061729
10,83696656.12472485
631,0.0
668,106875766.09078446
2,1, 7,21, 0,13,30.00,40.00,SummerDesignDay
8,17.488473222557489
10,83696656.12472485
631,0.0
668,107440249.3077822
2,1, 7,21, 0,13,40.00,50.00,SummerDesignDay
8,17.542913447755134
10,83696656.12472485
631,0.0
668,108004241.62775937
2,1, 7,21, 0,13,50.00,60.00,SummerDesignDay
8,17.59724609886134
10,83696656.12472485
631,0.0
668,108568897.4243984
2,1, 7,21, 0,13, 0.00,60.00,SummerDesignDay
357,24.0
397,24.000000000000015
437,23.999999999999987
477,24.00000000000004
517,24.00000000000003
2,1, 7,21, 0,14, 0.00,10.00,SummerDesignDay
8,17.6311450462694
10,83696656.12472485
631,0.0
668,108915048.72943296
2,1, 7,21, 0,14,10.00,20.00,SummerDesignDay
8,17.665000449016245
10,83696656.12472485
631,0.0
668,109262244.29720909
2,1, 7,21, 0,14,20.00,30.00,SummerDesignDay
8,17.698812743128934
10,83696656.12472485
631,0.0
668,109611071.29281293
2,1, 7,21, 0,14,30.00,40.00,SummerDesignDay
8,17.732582050940107
10,83696656.12472485
631,0.0
668,109961359.50456637
2,1, 7,21, 0,14,40.00,50.00,SummerDesignDay
8,17.766307345121004
10,83696656.12472485
631,0.0
668,110313149.47542843
2,1, 7,21, 0,14,50.00,60.00,SummerDesignDay
8,17.79999023167558
10,83696656.12472485
631,0.0
668,110666274.55835831
2,1, 7,21, 0,14, 0.00,60.00,SummerDesignDay
357,24.000000000000019
397,24.00000000000003
437,24.000000000000015
477,24.0
517,24.00000000000001
2,1, 7,21, 0,15, 0.00,10.00,SummerDesignDay
8,17.79999023167558
10,83696656.12472485
631,0.0
668,113468996.358515
2,1, 7,21, 0,15,10.00,20.00,SummerDesignDay
8,17.79999023167558
10,83696656.12472485
631,0.0
668,113698927.82897261
2,1, 7,21, 0,15,20.00,30.00,SummerDesignDay
8,17.79999023167558
10,83696656.12472485
631,0.0
668,113824558.55817563
2,1, 7,21, 0,15,30.00,40.00,SummerDesignDay
8,17.79999023167558
10,83696656.12472485
631,0.0
668,113967211.58598013
2,1, 7,21, 0,15,40.00,50.00,SummerDesignDay
8,17.79999023167558
10,83696656.12472485
631,0.0
668,114092735.20020357
2,1, 7,21, 0,15,50.00,60.00,SummerDesignDay
8,17.79999023167558
10,83696656.12472485
631,0.0
668,114195709.19542514
2,1, 7,21, 0,15, 0.00,60.00,SummerDesignDay
357,24.00000000000001
397,24.000000000000026
437,24.000000000000015
477,24.00000000000003
517,24.00000000000001
2,1, 7,21, 0,16, 0.00,10.00,SummerDesignDay
8,17.759562446305357
10,83696656.12472485
631,0.0
668,113841306.16760652
2,1, 7,21, 0,16,10.00,20.00,SummerDesignDay
8,17.71907809634183
10,83696656.12472485
631,0.0
668,113468352.04395136
2,1, 7,21, 0,16,20.00,30.00,SummerDesignDay
8,17.67853788661001
10,83696656.12472485
631,0.0
668,113084438.4199206
2,1, 7,21, 0,16,30.00,40.00,SummerDesignDay
8,17.63791796367351
10,83696656.12472485
631,0.0
668,112692853.56058026
2,1, 7,21, 0,16,40.00,50.00,SummerDesignDay
8,17.59724609886134
10,83696656.12472485
631,0.0
668,112294405.94027666
2,1, 7,21, 0,16,50.00,60.00,SummerDesignDay
8,17.55650676726033
10,83696656.12472485
631,0.0
668,111889843.32538414
2,1, 7,21, 0,16, 0.00,60.00,SummerDesignDay
357,23.99999999999999
397,24.00000000000001
437,24.000000000000019
477,24.00000000000003
517,23.999999999999998
2,1, 7,21, 0,17, 0.00,10.00,SummerDesignDay
8,17.50209486331892
10,83696656.12472485
631,0.0
668,112474119.14405555
2,1, 7,21, 0,17,10.00,20.00,SummerDesignDay
8,17.447570789624618
10,83696656.12472485
631,0.0
668,112008507.47490558
2,1, 7,21, 0,17,20.00,30.00,SummerDesignDay
8,17.392929544208135
10,83696656.12472485
631,0.0
668,111487360.21324454
2,1, 7,21, 0,17,30.00,40.00,SummerDesignDay
8,17.33818013976614
10,83696656.12472485
631,0.0
668,110968077.61778605
2,1, 7,21, 0,17,40.00,50.00,SummerDesignDay
8,17.283317298559309
10,83696656.12472485
631,0.0
668,110436411.65467564
2,1, 7,21, 0,17,50.00,60.00,SummerDesignDay
8,17.22833552437677
10,83696656.12472485
631,0.0
668,109894258.53616289
2,1, 7,21, 0,17, 0.00,60.00,SummerDesignDay
357,24.000000000000019
397,24.000000000000019
437,23.99999999999999
477,24.00000000000001
517,24.00000000000003
2,1, 7,21, 0,18, 0.00,10.00,SummerDesignDay
8,17.159453019160176
10,81318292.08980595
631,0.0
668,104724456.40748625
2,1, 7,21, 0,18,10.00,20.00,SummerDesignDay
8,17.090391773337136
10,81318292.08980595
631,0.0
668,103588215.47776112
2,1, 7,21, 0,18,20.00,30.00,SummerDesignDay
8,17.021151077964786
10,81318292.08980595
631,0.0
668,102783477.13648385
2,1, 7,21, 0,18,30.00,40.00,SummerDesignDay
8,16.951729380464653
10,81318292.08980595
631,0.0
668,101923822.18653147
2,1, 7,21, 0,18,40.00,50.00,SummerDesignDay
8,16.882126503829249
10,81318292.08980595
631,0.0
668,101081711.57727009
2,1, 7,21, 0,18,50.00,60.00,SummerDesignDay
8,16.812341807494034
10,81318292.08980595
631,0.0
668,100261685.22791311
2,1, 7,21, 0,18, 0.00,60.00,SummerDesignDay
357,24.000000000000033
397,24.000000000000005
437,24.000000000000026
477,24.00000000000001
517,24.000000000000033
2,1, 7,21, 0,19, 0.00,10.00,SummerDesignDay
8,16.707321072823203
10,66305338.03973428
631,0.0
668,81841693.73209057
2,1, 7,21, 0,19,10.00,20.00,SummerDesignDay
8,16.601881826644556
10,66305338.03973428
631,0.0
668,79396602.7525002
2,1, 7,21, 0,19,20.00,30.00,SummerDesignDay
8,16.496030555252849
10,66305338.03973428
631,0.0
668,77931913.58829077
2,1, 7,21, 0,19,30.00,40.00,SummerDesignDay
8,16.389760181474104
10,66305338.03973428
631,0.0
668,76414721.94422198
2,1, 7,21, 0,19,40.00,50.00,SummerDesignDay
8,16.283067654262039
10,66305338.03973428
631,0.0
668,74996478.66482835
2,1, 7,21, 0,19,50.00,60.00,SummerDesignDay
8,16.17595057957811
10,66305338.03973428
631,0.0
668,73660234.11699814
2,1, 7,21, 0,19, 0.00,60.00,SummerDesignDay
357,24.000000000000015
397,24.000000000000033
437,24.0
477,24.00000000000001
517,24.00000000000001
2,1, 7,21, 0,20, 0.00,10.00,SummerDesignDay
8,16.097123145563505
10,52241478.78593153
631,0.0
668,57136544.54318282
2,1, 7,21, 0,20,10.00,20.00,SummerDesignDay
8,16.018070242471564
10,52241478.78593153
631,0.0
668,54807006.5783007
2,1, 7,21, 0,20,20.00,30.00,SummerDesignDay
8,15.938779752340516
10,52241478.78593153
631,0.0
668,53559741.51454692
2,1, 7,21, 0,20,30.00,40.00,SummerDesignDay
8,15.85926152575189
10,52241478.78593153
631,0.0
668,52265588.57928344
2,1, 7,21, 0,20,40.00,50.00,SummerDesignDay
8,15.779503718563929
10,52241478.78593153
631,0.0
668,51064925.80425737
2,1, 7,21, 0,20,50.00,60.00,SummerDesignDay
8,15.699515709672767
10,52241478.78593153
631,0.0
668,49905356.372528
2,1, 7,21, 0,20, 0.00,60.00,SummerDesignDay
357,24.00000000000001
397,24.00000000000001
437,24.000000000000019
477,24.00000000000001
517,24.000000000000015
2,1, 7,21, 0,21, 0.00,10.00,SummerDesignDay
8,15.63389147320404
10,50452078.71549569
631,0.0
668,47335606.85547524
2,1, 7,21, 0,21,10.00,20.00,SummerDesignDay
8,15.56810827419793
10,50452078.71549569
631,0.0
668,46237245.40093894
2,1, 7,21, 0,21,20.00,30.00,SummerDesignDay
8,15.502170882753524
10,50452078.71549569
631,0.0
668,45342135.51496821
2,1, 7,21, 0,21,30.00,40.00,SummerDesignDay
8,15.436068032613852
10,50452078.71549569
631,0.0
668,44435344.05881636
2,1, 7,21, 0,21,40.00,50.00,SummerDesignDay
8,15.369804371206009
10,50452078.71549569
631,0.0
668,43561023.86261262
2,1, 7,21, 0,21,50.00,60.00,SummerDesignDay
8,15.303384603594449
10,50452078.71549569
631,0.0
668,42699364.48834543
2,1, 7,21, 0,21, 0.00,60.00,SummerDesignDay
357,24.000000000000005
397,24.000000000000015
437,24.000000000000026
477,24.00000000000003
517,23.999999999999998
2,1, 7,21, 0,22, 0.00,10.00,SummerDesignDay
8,15.236797685071274
10,35673584.84236794
631,0.0
668,27090259.709346419
2,1, 7,21, 0,22,10.00,20.00,SummerDesignDay
8,15.170047891787942
10,35673584.84236794
631,0.0
668,26769665.35613694
2,1, 7,21, 0,22,20.00,30.00,SummerDesignDay
8,15.103134826860483
10,35673584.84236794
631,0.0
668,26432941.668550645
2,1, 7,21, 0,22,30.00,40.00,SummerDesignDay
8,15.036063385178485
10,35673584.84236794
631,0.0
668,26111174.019622543
2,1, 7,21, 0,22,40.00,50.00,SummerDesignDay
8,14.968821767219835
10,35673584.84236794
631,0.0
668,25805591.678947357
2,1, 7,21, 0,22,50.00,60.00,SummerDesignDay
8,14.90141525878635
10,35673584.84236794
631,0.0
668,25512686.33028067
2,1, 7,21, 0,22, 0.00,60.00,SummerDesignDay
357,24.056350677686976
397,24.000000000000019
437,23.542526632390197
477,24.00000000000003
517,23.73446813634682
2,1, 7,21, 0,23, 0.00,10.00,SummerDesignDay
8,14.848873673278373
10,35673584.84236794
631,0.0
668,25272705.294845784
2,1, 7,21, 0,23,10.00,20.00,SummerDesignDay
8,14.796237168136719
10,35673584.84236794
631,0.0
668,25039612.24892188
2,1, 7,21, 0,23,20.00,30.00,SummerDesignDay
8,14.743494321455645
10,35673584.84236794
631,0.0
668,24812909.582116538
2,1, 7,21, 0,23,30.00,40.00,SummerDesignDay
8,14.690649975253665
10,35673584.84236794
631,0.0
668,24590358.843342075
2,1, 7,21, 0,23,40.00,50.00,SummerDesignDay
8,14.637704281233117
10,35673584.84236794
631,0.0
668,24371483.86529442
2,1, 7,21, 0,23,50.00,60.00,SummerDesignDay
8,14.584656914839757
10,35673584.84236794
631,0.0
668,24155816.405762044
2,1, 7,21, 0,23, 0.00,60.00,SummerDesignDay
357,23.860332714072574
397,24.000000000000005
437,22.808839454987227
477,24.0
517,23.21852818947953
2,1, 7,21, 0,24, 0.00,10.00,SummerDesignDay
8,14.531507212058875
10,34484402.824908498
631,0.0
668,23938475.86306472
2,1, 7,21, 0,24,10.00,20.00,SummerDesignDay
8,14.47825496413355
10,34484402.824908498
631,0.0
668,23715551.240733304
2,1, 7,21, 0,24,20.00,30.00,SummerDesignDay
8,14.4249000133173
10,34484402.824908498
631,0.0
668,23489507.82308025
2,1, 7,21, 0,24,30.00,40.00,SummerDesignDay
8,14.371447531304272
10,34484402.824908498
631,0.0
668,23262980.327293286
2,1, 7,21, 0,24,40.00,50.00,SummerDesignDay
8,14.31788619902223
10,34484402.824908498
631,0.0
668,23036684.3106312
2,1, 7,21, 0,24,50.00,60.00,SummerDesignDay
8,14.264220970176066
10,34484402.824908498
631,0.0
668,22811373.133961705
2,1, 7,21, 0,24, 0.00,60.00,SummerDesignDay
357,23.41351876153028
397,24.00000000000001
437,22.302715147948736
477,24.000000000000019
517,22.647222962615556
3,1, 7,21, 0,SummerDesignDay
358,45.44751364127896,41.86199366050566,21,50,51.10707467197994, 6,60
398,44.466136190229857,44.068919294961208,18,30,45.01638053313704, 8,29
438,48.94780222882854,43.96957813624541,10,60,54.726287536178379, 6,50
478,43.363255064523709,43.15569801922125,18,20,43.65244564016966, 8,13
518,46.74853190022505,42.03375904811315,14,60,54.3170799140531, 6,40
4,1, 7
7,22.2505,16.5,21, 5,60,28.9,21,14,60
1,FORT MCMURRAY AP ANN HTG 99.6% CONDNS DB,  56.65,-111.22,  -7.00, 369.10
2,1, 1,21, 0, 1, 0.00,10.00,WinterDesignDay
8,-36.2
10,34484402.824908498
631,157998096.18800644
668,0.0
2,1, 1,21, 0, 1,10.00,20.00,WinterDesignDay
8,-36.2
10,34484402.824908498
631,158056204.7399185
668,0.0
2,1, 1,21, 0, 1,20.00,30.00,WinterDesignDay
8,-36.2
10,34484402.824908498
631,158108417.01249046
668,0.0
2,1, 1,21, 0, 1,30.00,40.00,WinterDesignDay
8,-36.2
10,34484402.824908498
631,158152801.15236757
668,0.0
2,1, 1,21, 0, 1,40.00,50.00,WinterDesignDay
8,-36.2
10,34484402.824908498
631,158189847.27313368
668,0.0
2,1, 1,21, 0, 1,50.00,60.00,WinterDesignDay
8,-36.2
10,34484402.824908498
631,158220622.56155477
668,0.0
2,1, 1,21, 0, 1, 0.00,60.00,WinterDesignDay
357,18.00000000000001
397,22.000000000000019
437,18.000000000000005
477,22.000000000000026
517,18.00000000000001
2,1, 1,21, 0, 2, 0.00,10.00,WinterDesignDay
8,-36.2
10,34484402.824908498
631,119334097.87916895
668,0.0
2,1, 1,21, 0, 2,10.00,20.00,WinterDesignDay
8,-36.2
10,34484402.824908498
631,119416014.61237993
668,0.0
2,1, 1,21, 0, 2,20.00,30.00,WinterDesignDay
8,-36.2
10,34484402.824908498
631,119654585.92979568
668,0.0
2,1, 1,21, 0, 2,30.00,40.00,WinterDesignDay
8,-36.2
10,34484402.824908498
631,123111930.4791871
668,0.0
2,1, 1,21, 0, 2,40.00,50.00,WinterDesignDay
8,-36.2
10,34484402.824908498
631,129386218.9696947
668,0.0
2,1, 1,21, 0, 2,50.00,60.00,WinterDesignDay
8,-36.2
10,34484402.824908498
631,134121038.01162604
668,0.0
2,1, 1,21, 0, 2, 0.00,60.00,WinterDesignDay
357,18.000000000000005
397,19.06205693881789
437,18.000000000000005
477,19.46396244667688
517,18.000000000000005
2,1, 1,21, 0, 3, 0.00,10.00,WinterDesignDay
8,-36.2
10,34484402.824908498
631,141534805.56314398
668,0.0
2,1, 1,21, 0, 3,10.00,20.00,WinterDesignDay
8,-36.2
10,34484402.824908498
631,143768368.10310687
668,0.0
2,1, 1,21, 0, 3,20.00,30.00,WinterDesignDay
8,-36.2
10,34484402.824908498
631,143129239.01762454
668,0.0
2,1, 1,21, 0, 3,30.00,40.00,WinterDesignDay
8,-36.2
10,34484402.824908498
631,144013935.40351743
668,0.0
2,1, 1,21, 0, 3,40.00,50.00,WinterDesignDay
8,-36.2
10,34484402.824908498
631,144284800.52466006
668,0.0
2,1, 1,21, 0, 3,50.00,60.00,WinterDesignDay
8,-36.2
10,34484402.824908498
631,144506669.4882614
668,0.0
2,1, 1,21, 0, 3, 0.00,60.00,WinterDesignDay
357,18.000000000000008
397,18.00000006938835
437,18.000000000000005
477,18.000024224416984
517,18.00000000000001
2,1, 1,21, 0, 4, 0.00,10.00,WinterDesignDay
8,-36.2
10,34484402.824908498
631,144668123.82263614
668,0.0
2,1, 1,21, 0, 4,10.00,20.00,WinterDesignDay
8,-36.2
10,34484402.824908498
631,144800783.34024436
668,0.0
2,1, 1,21, 0, 4,20.00,30.00,WinterDesignDay
8,-36.2
10,34484402.824908498
631,144893539.5012972
668,0.0
2,1, 1,21, 0, 4,30.00,40.00,WinterDesignDay
8,-36.2
10,34484402.824908498
631,144971788.68152849
668,0.0
2,1, 1,21, 0, 4,40.00,50.00,WinterDesignDay
8,-36.2
10,34484402.824908498
631,145040567.85310824
668,0.0
2,1, 1,21, 0, 4,50.00,60.00,WinterDesignDay
8,-36.2
10,34484402.824908498
631,145097631.05191303
668,0.0
2,1, 1,21, 0, 4, 0.00,60.00,WinterDesignDay
357,18.00000000000001
397,18.000000000000026
437,18.000000000000008
477,18.000000000000019
517,18.000000000000005
2,1, 1,21, 0, 5, 0.00,10.00,WinterDesignDay
8,-36.2
10,34484402.824908498
631,145144106.40671746
668,0.0
2,1, 1,21, 0, 5,10.00,20.00,WinterDesignDay
8,-36.2
10,34484402.824908498
631,145181780.2330878
668,0.0
2,1, 1,21, 0, 5,20.00,30.00,WinterDesignDay
8,-36.2
10,34484402.824908498
631,145212340.7510195
668,0.0
2,1, 1,21, 0, 5,30.00,40.00,WinterDesignDay
8,-36.2
10,34484402.824908498
631,145237206.3619711
668,0.0
2,1, 1,21, 0, 5,40.00,50.00,WinterDesignDay
8,-36.2
10,34484402.824908498
631,145257522.8307078
668,0.0
2,1, 1,21, 0, 5,50.00,60.00,WinterDesignDay
8,-36.2
10,34484402.824908498
631,145269386.76274074
668,0.0
2,1, 1,21, 0, 5, 0.00,60.00,WinterDesignDay
357,18.000000000000008
397,18.000000000000033
437,18.00000000000001
477,18.000000000000019
517,18.00000000000001
2,1, 1,21, 0, 6, 0.00,10.00,WinterDesignDay
8,-36.2
10,34484402.824908498
631,145279015.65498979
668,0.0
2,1, 1,21, 0, 6,10.00,20.00,WinterDesignDay
8,-36.2
10,34484402.824908498
631,145288604.96800853
668,0.0
2,1, 1,21, 0, 6,20.00,30.00,WinterDesignDay
8,-36.2
10,34484402.824908498
631,145297525.39199919
668,0.0
2,1, 1,21, 0, 6,30.00,40.00,WinterDesignDay
8,-36.2
10,34484402.824908498
631,145305630.1033346
668,0.0
2,1, 1,21, 0, 6,40.00,50.00,WinterDesignDay
8,-36.2
10,34484402.824908498
631,145312856.09826938
668,0.0
2,1, 1,21, 0, 6,50.00,60.00,WinterDesignDay
8,-36.2
10,34484402.824908498
631,145319266.25050573
668,0.0
2,1, 1,21, 0, 6, 0.00,60.00,WinterDesignDay
357,18.000000000000005
397,18.000000000000033
437,18.000000000000005
477,18.0
517,18.00000000000001
2,1, 1,21, 0, 7, 0.00,10.00,WinterDesignDay
8,-36.2
10,34484402.824908498
631,206332582.55031974
668,0.0
2,1, 1,21, 0, 7,10.00,20.00,WinterDesignDay
8,-36.2
10,34484402.824908498
631,102632865.32443944
668,0.0
2,1, 1,21, 0, 7,20.00,30.00,WinterDesignDay
8,-36.2
10,34484402.824908498
631,172013643.38432188
668,0.0
2,1, 1,21, 0, 7,30.00,40.00,WinterDesignDay
8,-36.2
10,34484402.824908498
631,153655317.4702623
668,0.0
2,1, 1,21, 0, 7,40.00,50.00,WinterDesignDay
8,-36.2
10,34484402.824908498
631,154233375.73155455
668,0.0
2,1, 1,21, 0, 7,50.00,60.00,WinterDesignDay
8,-36.2
10,34484402.824908498
631,153944516.0696724
668,0.0
2,1, 1,21, 0, 7, 0.00,60.00,WinterDesignDay
357,20.033943065164867
397,18.000000000000026
437,18.000000000000005
477,18.000000000000015
517,20.010515958856617
2,1, 1,21, 0, 8, 0.00,10.00,WinterDesignDay
8,-36.2
10,42399778.39853449
631,285062359.8400464
668,0.0
2,1, 1,21, 0, 8,10.00,20.00,WinterDesignDay
8,-36.2
10,42399778.39853449
631,161051469.45441628
668,0.0
2,1, 1,21, 0, 8,20.00,30.00,WinterDesignDay
8,-36.2
10,42399778.39853449
631,212331403.300441
668,0.0
2,1, 1,21, 0, 8,30.00,40.00,WinterDesignDay
8,-36.2
10,42399778.39853449
631,165260175.41619153
668,0.0
2,1, 1,21, 0, 8,40.00,50.00,WinterDesignDay
8,-36.2
10,42399778.39853449
631,166990020.33102636
668,0.0
2,1, 1,21, 0, 8,50.00,60.00,WinterDesignDay
8,-36.2
10,42399778.39853449
631,166130617.5778609
668,0.0
2,1, 1,21, 0, 8, 0.00,60.00,WinterDesignDay
357,22.04013234722558
397,20.05026013614138
437,20.01886230191266
477,20.060521866486714
517,22.01099185707957
2,1, 1,21, 0, 9, 0.00,10.00,WinterDesignDay
8,-36.2
10,72191226.32173389
631,222157096.54830135
668,0.0
2,1, 1,21, 0, 9,10.00,20.00,WinterDesignDay
8,-36.2
10,72191226.32173389
631,91269753.70960549
668,0.0
2,1, 1,21, 0, 9,20.00,30.00,WinterDesignDay
8,-36.2
10,72191226.32173389
631,154777280.2163002
668,0.0
2,1, 1,21, 0, 9,30.00,40.00,WinterDesignDay
8,-36.2
10,72191226.32173389
631,154434353.8118045
668,0.0
2,1, 1,21, 0, 9,40.00,50.00,WinterDesignDay
8,-36.2
10,72191226.32173389
631,145467016.31262345
668,0.0
2,1, 1,21, 0, 9,50.00,60.00,WinterDesignDay
8,-36.2
10,72191226.32173389
631,146003907.47612799
668,0.0
2,1, 1,21, 0, 9, 0.00,60.00,WinterDesignDay
357,22.000000000000019
397,22.084171197448304
437,22.0221032786623
477,22.120137322736498
517,22.00000000000011