Program Version,EnergyPlus, Version 8.9.0-eba93e8e1b, YMD=2019.03.28 13:45
1,5,Environment Title[],Latitude[deg],Longitude[deg],Time Zone[],Elevation[m]
2,8,Day of Simulation[],Month[],Day of Month[],DST Indicator[1=yes 0=no],Hour[],StartMinute[],EndMinute[],DayType
3,5,Cumulative Day of Simulation[],Month[],Day of Month[],DST Indicator[1=yes 0=no],DayType  ! When Daily Report Variables Requested
4,2,Cumulative Days of Simulation[],Month[]  ! When Monthly Report Variables Requested
5,1,Cumulative Days of Simulation[] ! When Run Period Report Variables Requested
6,1,Calendar Year of Simulation[] ! When Annual Report Variables Requested
7,9,Environment,Site Outdoor Air Drybulb Temperature [C] !Monthly [Value,Min,Day,Hour,Minute,Max,Day,Hour,Minute]
8,1,Environment,Site Outdoor Air Wetbulb Temperature [C] !TimeStep
914,1,GUEST ROOM-SPACE FUNCTION ZN,Zone Air Temperature [C] !Hourly
915,7,GUEST ROOM-SPACE FUNCTION ZN,Zone Air Relative Humidity [%] !Daily [Value,Min,Hour,Minute,Max,Hour,Minute]
954,1,LABORATORY - CLASSROOMS-SPACE FUNCTION ZN,Zone Air Temperature [C] !Hourly
955,7,LABORATORY - CLASSROOMS-SPACE FUNCTION ZN,Zone Air Relative Humidity [%] !Daily [Value,Min,Hour,Minute,Max,Hour,Minute]
994,1,LABORATORY - OTHER-SPACE FUNCTION ZN,Zone Air Temperature [C] !Hourly
995,7,LABORATORY - OTHER-SPACE FUNCTION ZN,Zone Air Relative Humidity [%] !Daily [Value,Min,Hour,Minute,Max,Hour,Minute]
1034,1,LAUNDRY/WASHING AREA-SPACE FUNCTION ZN,Zone Air Temperature [C] !Hourly
1035,7,LAUNDRY/WASHING AREA-SPACE FUNCTION ZN,Zone Air Relative Humidity [%] !Daily [Value,Min,Hour,Minute,Max,Hour,Minute]
1074,1,LOADING DOCK INTERIOR-SPACE FUNCTION ZN,Zone Air Temperature [C] !Hourly
1075,7,LOADING DOCK INTERIOR-SPACE FUNCTION ZN,Zone Air Relative Humidity [%] !Daily [Value,Min,Hour,Minute,Max,Hour,Minute]
1114,1,LOBBY - ELEVATOR-SPACE FUNCTION ZN,Zone Air Temperature [C] !Hourly
1115,7,LOBBY - ELEVATOR-SPACE FUNCTION ZN,Zone Air Relative Humidity [%] !Daily [Value,Min,Hour,Minute,Max,Hour,Minute]
1154,1,LOBBY - HOTEL-SPACE FUNCTION ZN,Zone Air Temperature [C] !Hourly
1155,7,LOBBY - HOTEL-SPACE FUNCTION ZN,Zone Air Relative Humidity [%] !Daily [Value,Min,Hour,Minute,Max,Hour,Minute]
1194,1,LOBBY - MOTION PICTURE THEATRE-SPACE FUNCTION ZN,Zone Air Temperature [C] !Hourly
1195,7,LOBBY - MOTION PICTURE THEATRE-SPACE FUNCTION ZN,Zone Air Relative Humidity [%] !Daily [Value,Min,Hour,Minute,Max,Hour,Minute]
1234,1,LOBBY - OTHER-SPACE FUNCTION ZN,Zone Air Temperature [C] !Hourly
1235,7,LOBBY - OTHER-SPACE FUNCTION ZN,Zone Air Relative Humidity [%] !Daily [Value,Min,Hour,Minute,Max,Hour,Minute]
1274,1,LOBBY - PERFORMING ARTS THEATRE-SPACE FUNCTION ZN,Zone Air Temperature [C] !Hourly
1275,7,LOBBY - PERFORMING ARTS THEATRE-SPACE FUNCTION ZN,Zone Air Relative Humidity [%] !Daily [Value,Min,Hour,Minute,Max,Hour,Minute]
1314,1,LOBBY - SPACE DESIGNED TO ANSI/IES RP-28 (USED PRIMARILY BY RESIDENTS)-SPACE FUNCTION ZN,Zone Air Temperature [C] !Hourly
1315,7,LOBBY - SPACE DESIGNED TO ANSI/IES RP-28 (USED PRIMARILY BY RESIDENTS)-SPACE FUNCTION ZN,Zone Air Relative Humidity [%] !Daily [Value,Min,Hour,Minute,Max,Hour,Minute]
1354,1,LOCKER ROOM-SCH-A-SPACE FUNCTION ZN,Zone Air Temperature [C] !Hourly
1355,7,LOCKER ROOM-SCH-A-SPACE FUNCTION ZN,Zone Air Relative Humidity [%] !Daily [Value,Min,Hour,Minute,Max,Hour,Minute]
1394,1,LOCKER ROOM-SCH-B-SPACE FUNCTION ZN,Zone Air Temperature [C] !Hourly
1395,7,LOCKER ROOM-SCH-B-SPACE FUNCTION ZN,Zone Air Relative Humidity [%] !Daily [Value,Min,Hour,Minute,Max,Hour,Minute]
1434,1,LOCKER ROOM-SCH-C-SPACE FUNCTION ZN,Zone Air Temperature [C] !Hourly
1435,7,LOCKER ROOM-SCH-C-SPACE FUNCTION ZN,Zone Air Relative Humidity [%] !Daily [Value,Min,Hour,Minute,Max,Hour,Minute]
1474,1,LOCKER ROOM-SCH-D-SPACE FUNCTION ZN,Zone Air Temperature [C] !Hourly
1475,7,LOCKER ROOM-SCH-D-SPACE FUNCTION ZN,Zone Air Relative Humidity [%] !Daily [Value,Min,Hour,Minute,Max,Hour,Minute]
1514,1,LOCKER ROOM-SCH-E-SPACE FUNCTION ZN,Zone Air Temperature [C] !Hourly
1515,7,LOCKER ROOM-SCH-E-SPACE FUNCTION ZN,Zone Air Relative Humidity [%] !Daily [Value,Min,Hour,Minute,Max,Hour,Minute]
1554,1,LOCKER ROOM-SCH-F-SPACE FUNCTION ZN,Zone Air Temperature [C] !Hourly
1555,7,LOCKER ROOM-SCH-F-SPACE FUNCTION ZN,Zone Air Relative Humidity [%] !Daily [Value,Min,Hour,Minute,Max,Hour,Minute]
1594,1,LOCKER ROOM-SCH-G-SPACE FUNCTION ZN,Zone Air Temperature [C] !Hourly
1595,7,LOCKER ROOM-SCH-G-SPACE FUNCTION ZN,Zone Air Relative Humidity [%] !Daily [Value,Min,Hour,Minute,Max,Hour,Minute]
1634,1,LOCKER ROOM-SCH-H-SPACE FUNCTION ZN,Zone Air Temperature [C] !Hourly
1635,7,LOCKER ROOM-SCH-H-SPACE FUNCTION ZN,Zone Air Relative Humidity [%] !Daily [Value,Min,Hour,Minute,Max,Hour,Minute]
1674,1,LOCKER ROOM-SCH-I-SPACE FUNCTION ZN,Zone Air Temperature [C] !Hourly
1675,7,LOCKER ROOM-SCH-I-SPACE FUNCTION ZN,Zone Air Relative Humidity [%] !Daily [Value,Min,Hour,Minute,Max,Hour,Minute]
10,1,Electricity:Facility [J] !TimeStep
1825,1,DistrictCooling:Facility [J] !TimeStep
1788,1,DistrictHeating:Facility [J] !TimeStep
End of Data Dictionary
1,FORT MCMURRAY AP ANN CLG .4% CONDNS DB=>MWB,  56.65,-111.22,  -7.00, 369.10
2,1, 7,21, 0, 1, 0.00,10.00,SummerDesignDay
8,14.218136923962174
10,89730873.29306631
1788,0.0
1825,49248355.28037381
2,1, 7,21, 0, 1,10.00,20.00,SummerDesignDay
8,14.171982153293495
10,89730873.29306631
1788,0.0
1825,46463317.87651305
2,1, 7,21, 0, 1,20.00,30.00,SummerDesignDay
8,14.125744780286427
10,89730873.29306631
1788,0.0
1825,44147427.35381454
2,1, 7,21, 0, 1,30.00,40.00,SummerDesignDay
8,14.079436086331978
10,89730873.29306631
1788,0.0
1825,41842246.75139828
2,1, 7,21, 0, 1,40.00,50.00,SummerDesignDay
8,14.033050387896898
10,89730873.29306631
1788,0.0
1825,39548162.94839713
2,1, 7,21, 0, 1,50.00,60.00,SummerDesignDay
8,13.986581233564835
10,89730873.29306631
1788,0.0
1825,37262084.59015599
2,1, 7,21, 0, 1, 0.00,60.00,SummerDesignDay
914,23.65713572268037
954,21.701130506573408
994,22.045987406025139
1034,24.118112325822794
1074,24.00000000000001
1114,20.46158628503653
1154,24.0
1194,20.806483447190556
1234,20.69002861954628
1274,21.143357222823025
1314,22.671125879245087
1354,23.40724220029831
1394,23.95914153348349
1434,23.34851703232002
1474,23.125711694025413
1514,22.118065958017437
1554,23.999999999999998
1594,24.000000000000019
1634,24.000000000000026
1674,23.528130004833476
2,1, 7,21, 0, 2, 0.00,10.00,SummerDesignDay
8,13.95555882260429
10,65181204.65376616
1788,0.0
1825,33301188.83287212
2,1, 7,21, 0, 2,10.00,20.00,SummerDesignDay
8,13.924507755336454
10,65181204.65376616
1788,3725149.38331903
1825,31329724.63677464
2,1, 7,21, 0, 2,20.00,30.00,SummerDesignDay
8,13.893416042989206
10,65181204.65376616
1788,3816778.18209124
1825,29462926.164743395
2,1, 7,21, 0, 2,30.00,40.00,SummerDesignDay
8,13.862289589689029
10,65181204.65376616
1788,4101819.542072203
1825,27603049.568839246
2,1, 7,21, 0, 2,40.00,50.00,SummerDesignDay
8,13.831134407608739
10,65181204.65376616
1788,4872297.182723217
1825,25752400.910487087
2,1, 7,21, 0, 2,50.00,60.00,SummerDesignDay
8,13.799938415548118
10,65181204.65376616
1788,5510703.4740358679
1825,23910736.9012938
2,1, 7,21, 0, 2, 0.00,60.00,SummerDesignDay
914,23.15359022301153
954,21.15702312135227
994,21.547810784320693
1034,23.848182865032386
1074,24.000000000000026
1114,19.92249953029392
1154,24.0
1194,20.370606062940323
1234,20.262962121080898
1274,20.69811537670791
1314,22.03970494790713
1354,23.102976019287416
1394,23.268411623111047
1434,23.03904793801351
1474,22.857824599386246
1514,21.66152588423984
1554,24.000000000000026
1594,24.0
1634,24.000000000000047
1674,22.86186462290198
2,1, 7,21, 0, 3, 0.00,10.00,SummerDesignDay
8,13.776521671948676
10,50550889.612466927
1788,0.0
1825,22322198.853156717
2,1, 7,21, 0, 3,10.00,20.00,SummerDesignDay
8,13.753085235778466
10,50550889.612466927
1788,0.0
1825,21058770.09667187
2,1, 7,21, 0, 3,20.00,30.00,SummerDesignDay
8,13.729636002354969
10,50550889.612466927
1788,0.0
1825,19872119.7435796
2,1, 7,21, 0, 3,30.00,40.00,SummerDesignDay
8,13.706147375533054
10,50550889.612466927
1788,0.0
1825,18680317.92677612
2,1, 7,21, 0, 3,40.00,50.00,SummerDesignDay
8,13.682651961920304
10,50550889.612466927
1788,0.0
1825,17484844.354940099
2,1, 7,21, 0, 3,50.00,60.00,SummerDesignDay
8,13.659136670643687
10,50550889.612466927
1788,0.0
1825,16288547.896585614
2,1, 7,21, 0, 3, 0.00,60.00,SummerDesignDay
914,22.797908780707674
954,20.752614994909484
994,21.171913822908566
1034,23.61126468508813
1074,24.0
1114,19.52431780638014
1154,24.000000000000026
1194,20.037033217673487
1234,19.930726169989645
1274,20.35753691136723
1314,20.90084509021493
1354,22.851406295507798
1394,22.46709149882044
1434,22.782265257360977
1474,22.639128393558008
1514,21.306022347520416
1554,23.934575670319153
1594,24.00000000000003
1634,24.00000000000003
1674,22.535361243753248
2,1, 7,21, 0, 4, 0.00,10.00,SummerDesignDay
8,13.63560137410855
10,49117118.73841959
1788,0.0
1825,15093001.196872896
2,1, 7,21, 0, 4,10.00,20.00,SummerDesignDay
8,13.612040802606578
10,49117118.73841959
1788,0.0
1825,13899191.304247767
2,1, 7,21, 0, 4,20.00,30.00,SummerDesignDay
8,13.58846620506876
10,49117118.73841959
1788,0.0
1825,12920512.814149904
2,1, 7,21, 0, 4,30.00,40.00,SummerDesignDay
8,13.56487178447336
10,49117118.73841959
1788,0.0
1825,12165941.787106887
2,1, 7,21, 0, 4,40.00,50.00,SummerDesignDay
8,13.541257354069103
10,49117118.73841959
1788,0.0
1825,11536786.463909844
2,1, 7,21, 0, 4,50.00,60.00,SummerDesignDay
8,13.517617463812285
10,49117118.73841959
1788,0.0
1825,10908648.791250628
2,1, 7,21, 0, 4, 0.00,60.00,SummerDesignDay
914,22.440643480609795
954,20.398306213067007
994,20.843676925383109
1034,23.374225372618068
1074,23.988612639171735
1114,19.179207479565439
1154,24.00000000000007
1194,19.735138827351528
1234,19.62733061741763
1274,20.05068713305481
1314,20.41875882490277
1354,22.60828143102484
1394,22.084104896946
1434,22.53797056793765
1474,22.423032521693498
1514,20.986459202804587
1554,23.64166464658216
1594,23.97161050642417
1634,24.00000000000004
1674,22.309393632721098
2,1, 7,21, 0, 5, 0.00,10.00,SummerDesignDay
8,13.50185415824011
10,49117118.73841959
1788,0.0
1825,10391729.932554223
2,1, 7,21, 0, 5,10.00,20.00,SummerDesignDay
8,13.486076034032447
10,49117118.73841959
1788,0.0
1825,10438423.084318078
2,1, 7,21, 0, 5,20.00,30.00,SummerDesignDay
8,13.470289340350983
10,49117118.73841959
1788,0.0
1825,10494943.793200355
2,1, 7,21, 0, 5,30.00,40.00,SummerDesignDay
8,13.454493322631063
10,49117118.73841959
1788,0.0
1825,10707738.741456658
2,1, 7,21, 0, 5,40.00,50.00,SummerDesignDay
8,13.438688835118548
10,49117118.73841959
1788,0.0
1825,11016869.995524425
2,1, 7,21, 0, 5,50.00,60.00,SummerDesignDay
8,13.422888173889437
10,49117118.73841959
1788,0.0
1825,11351072.954391564
2,1, 7,21, 0, 5, 0.00,60.00,SummerDesignDay
914,22.334511495673366
954,20.144001216736585
994,20.802708951957788
1034,23.150072687842056
1074,23.857375973285146
1114,18.930588283219625
1154,24.00000000000004
1194,19.46946375276445
1234,19.364588501405846
1274,19.784471886966569
1314,20.119281341576217
1354,22.442620948327759
1394,21.852504642318377
1434,22.31622136336144
1474,22.280447498723914
1514,20.754789604366054
1554,23.37706352340126
1594,23.91418566810771
1634,24.000000000000005
1674,22.103440398414809
2,1, 7,21, 0, 6, 0.00,10.00,SummerDesignDay
8,13.438688835118548
10,49117118.73841959
1788,0.0
1825,13581052.536360477
2,1, 7,21, 0, 6,10.00,20.00,SummerDesignDay
8,13.454493322631063
10,49117118.73841959
1788,0.0
1825,14598358.15538813
2,1, 7,21, 0, 6,20.00,30.00,SummerDesignDay
8,13.470289340350983
10,49117118.73841959
1788,0.0
1825,16133678.114827682
2,1, 7,21, 0, 6,30.00,40.00,SummerDesignDay
8,13.486076034032447
10,49117118.73841959
1788,0.0
1825,17576761.878477489
2,1, 7,21, 0, 6,40.00,50.00,SummerDesignDay
8,13.50185415824011
10,49117118.73841959
1788,0.0
1825,18967861.28502041
2,1, 7,21, 0, 6,50.00,60.00,SummerDesignDay
8,13.517617463812285
10,49117118.73841959
1788,0.0
1825,20315668.898613309
2,1, 7,21, 0, 6, 0.00,60.00,SummerDesignDay
914,22.704949526354914
954,20.19704323549776
994,21.651035604154175
1034,22.989819598763125
1074,23.739027491773368
1114,18.99660394763998
1154,24.00000000000004
1194,19.364222202378224
1234,19.264995171829058
1274,19.680578662501188
1314,19.996052270653473
1354,22.412956889994566
1394,21.713814885292935
1434,22.183699322338794
1474,22.26264143684379
1514,20.80713139536574
1554,23.219755334102215
1594,23.999892775246054
1634,24.00000000000003
1674,21.975775118821873
2,1, 7,21, 0, 7, 0.00,10.00,SummerDesignDay
8,13.572736920571789
10,52374051.94838267
1788,0.0
1825,23408667.54984748
2,1, 7,21, 0, 7,10.00,20.00,SummerDesignDay
8,13.627748229152554
10,52374051.94838267
1788,0.0
1825,25558577.48080007
2,1, 7,21, 0, 7,20.00,30.00,SummerDesignDay
8,13.682651961920304
10,52374051.94838267
1788,0.0
1825,27604236.561477595
2,1, 7,21, 0, 7,30.00,40.00,SummerDesignDay
8,13.737448093244995
10,52374051.94838267
1788,0.0
1825,29595324.689029196
2,1, 7,21, 0, 7,40.00,50.00,SummerDesignDay
8,13.792137011831216
10,52374051.94838267
1788,0.0
1825,31527907.377800757
2,1, 7,21, 0, 7,50.00,60.00,SummerDesignDay
8,13.846719282840333
10,52374051.94838267
1788,0.0
1825,33401492.391502114
2,1, 7,21, 0, 7, 0.00,60.00,SummerDesignDay
914,23.104704401611686
954,20.656734960313427
994,22.8611217868576
1034,22.96135084428508
1074,23.74692505578918
1114,19.518862613014077
1154,24.000000000000033
1194,19.57042735246178
1234,19.48011545388193
1274,19.88804761505727
1314,20.200509631178535
1354,22.417876291354543
1394,21.74772446926473
1434,22.20798443006157
1474,22.260865789624466
1514,21.243066140345364
1554,23.280512479074614
1594,23.999999999970198
1634,24.000000000000026
1674,22.003380838932057
2,1, 7,21, 0, 8, 0.00,10.00,SummerDesignDay
8,13.978831900527043
10,68836532.59639229
1788,11217117.328095235
1825,37988058.82938572
2,1, 7,21, 0, 8,10.00,20.00,SummerDesignDay
8,14.110321014287419
10,68836532.59639229
1788,0.0
1825,50902586.3737546
2,1, 7,21, 0, 8,20.00,30.00,SummerDesignDay
8,14.241191509616986
10,68836532.59639229
1788,0.0
1825,58572138.27166568
2,1, 7,21, 0, 8,30.00,40.00,SummerDesignDay
8,14.371447531304272
10,68836532.59639229
1788,0.0
1825,69101309.26182841
2,1, 7,21, 0, 8,40.00,50.00,SummerDesignDay
8,14.501093766564925
10,68836532.59639229
1788,0.0
1825,78552197.21978061
2,1, 7,21, 0, 8,50.00,60.00,SummerDesignDay
8,14.630134792273804
10,68836532.59639229
1788,0.0
1825,86780818.01749659
2,1, 7,21, 0, 8, 0.00,60.00,SummerDesignDay
914,23.817658646358145
954,21.737794084822853
994,23.959233062410687
1034,23.140437469330239
1074,23.92019244426307
1114,20.772502413094825
1154,24.000000000000019
1194,20.369249395778394
1234,20.33046040555676
1274,20.59275548010508
1314,20.910786073335506
1354,22.91655713634246
1394,22.03839078005967
1434,22.480610698189535
1474,22.530606264320473
1514,22.236018249098878
1554,23.56550074277189
1594,24.0
1634,24.0
1674,22.273637310781696
2,1, 7,21, 0, 9, 0.00,10.00,SummerDesignDay
8,14.773641492809972
10,156685572.23886443
1788,61818318.539397
1825,105068746.55614893
2,1, 7,21, 0, 9,10.00,20.00,SummerDesignDay
8,14.91640948124148
10,156685572.23886443
1788,5781061.046467891
1825,120329572.52299285
2,1, 7,21, 0, 9,20.00,30.00,SummerDesignDay
8,15.05843890714102
10,156685572.23886443
1788,1689038.1381026733
1825,155288191.76295353
2,1, 7,21, 0, 9,30.00,40.00,SummerDesignDay
8,15.199735893563798
10,156685572.23886443
1788,0.0
1825,176439988.32659576
2,1, 7,21, 0, 9,40.00,50.00,SummerDesignDay
8,15.340306256439395
10,156685572.23886443
1788,0.0
1825,193746707.69581474
2,1, 7,21, 0, 9,50.00,60.00,SummerDesignDay
8,15.48015101768072
10,156685572.23886443
1788,0.0
1825,215572824.3780477
2,1, 7,21, 0, 9, 0.00,60.00,SummerDesignDay
914,23.999999999831528
954,23.652988472688127
994,23.999999999932759
1034,23.936881883525019
1074,23.999999996469659
1114,23.142831992604149
1154,24.000000000000015
1194,22.197499213418195
1234,22.215894030944793
1274,22.61167613597527
1314,22.15828787430594
1354,23.911451278858395
1394,22.654691012209697
1434,23.43629298681333
1474,23.364018832469897
1514,23.823309564504809
1554,23.94709193846447
1594,24.000000000000026
1634,24.000000000000005
1674,22.848313615755545
2,1, 7,21, 0,10, 0.00,10.00,SummerDesignDay
8,15.60467292907716
10,243991639.62516279
1788,0.0
1825,286650231.27639719
2,1, 7,21, 0,10,10.00,20.00,SummerDesignDay
8,15.72862731650033
10,243991639.62516279
1788,0.0
1825,316931756.61054936
2,1, 7,21, 0,10,20.00,30.00,SummerDesignDay
8,15.852017409284228
10,243991639.62516279
1788,0.0
1825,344409624.52417179
2,1, 7,21, 0,10,30.00,40.00,SummerDesignDay
8,15.974848118364367
10,243991639.62516279
1788,0.0
1825,373734089.2087461
2,1, 7,21, 0,10,40.00,50.00,SummerDesignDay
8,16.097123145563505
10,243991639.62516279
1788,0.0
1825,406853618.2484948
2,1, 7,21, 0,10,50.00,60.00,SummerDesignDay
8,16.218846351168599
10,243991639.62516279
1788,0.0
1825,439324057.45771428
2,1, 7,21, 0,10, 0.00,60.00,SummerDesignDay
914,24.000000000000019
954,23.999999965761494
994,24.000000000000055
1034,23.999999999993759
1074,24.0
1114,23.99960499256549
1154,24.000000000000019
1194,23.48016333519239
1234,23.552230508130959
1274,23.90655797222065
1314,23.78851126314188
1354,23.999999999922325
1394,23.766302530534984
1434,23.999667674356187
1474,23.999112216831123
1514,23.999999999816614
1554,23.99999999959231
1594,24.00000000000001
1634,23.999999999999998
1674,23.604878486096209
2,1, 7,21, 0,11, 0.00,10.00,SummerDesignDay
8,16.325793027093189
10,254487952.8265872
1788,0.0
1825,489076041.4788275
2,1, 7,21, 0,11,10.00,20.00,SummerDesignDay
8,16.432322158488288
10,254487952.8265872
1788,0.0
1825,516470410.10672459
2,1, 7,21, 0,11,20.00,30.00,SummerDesignDay
8,16.538424180249178
10,254487952.8265872
1788,0.0
1825,542143854.2526798
2,1, 7,21, 0,11,30.00,40.00,SummerDesignDay
8,16.644108396469087
10,254487952.8265872
1788,0.0
1825,567461672.1057692
2,1, 7,21, 0,11,40.00,50.00,SummerDesignDay
8,16.749376736593655
10,254487952.8265872
1788,0.0
1825,592528741.9940208
2,1, 7,21, 0,11,50.00,60.00,SummerDesignDay
8,16.854232613237156
10,254487952.8265872
1788,0.0
1825,617410757.4880121
2,1, 7,21, 0,11, 0.00,60.00,SummerDesignDay
914,24.000000000000015
954,24.0
994,24.000000000000069
1034,24.000000000000015
1074,24.000000000000015
1114,23.999999998849935
1154,24.000000000000047
1194,23.999051360898546
1234,23.999452220450256
1274,23.999999464484575
1314,23.999993992241988
1354,24.000000000000044
1394,23.99999884944099
1434,23.999999999998836
1474,23.999999999997045
1514,24.00000000000003
1554,24.000000000000005
1594,24.000000000000019
1634,24.00000000000003
1674,24.517288886594185
2,1, 7,21, 0,12, 0.00,10.00,SummerDesignDay
8,16.92390823520069
10,260369339.47318939
1788,0.0
1825,643305191.0207934
2,1, 7,21, 0,12,10.00,20.00,SummerDesignDay
8,16.99340178950456
10,260369339.47318939
1788,0.0
1825,661074629.7323889
2,1, 7,21, 0,12,20.00,30.00,SummerDesignDay
8,17.06272006743463
10,260369339.47318939
1788,0.0
1825,678507748.2026903
2,1, 7,21, 0,12,30.00,40.00,SummerDesignDay
8,17.131853229172639
10,260369339.47318939
1788,0.0
1825,695919391.4568868
2,1, 7,21, 0,12,40.00,50.00,SummerDesignDay
8,17.200807172194087
10,260369339.47318939
1788,0.0
1825,713260956.191922
2,1, 7,21, 0,12,50.00,60.00,SummerDesignDay
8,17.269582116758607
10,260369339.47318939
1788,0.0
1825,730437390.0116156
2,1, 7,21, 0,12, 0.00,60.00,SummerDesignDay
914,24.000000000000015
954,23.999999999999984
994,23.999999999999976
1034,23.999999999999998
1074,23.99999999999997
1114,23.999999999999976
1154,24.00000000000003
1194,23.999999798899727
1234,23.999999893628769
1274,23.999999999921884
1314,23.999999999149723
1354,24.000000000000019
1394,23.99999999999946
1434,24.00000000000001
1474,24.000000000000026
1514,23.999999999999948
1554,24.00000000000001
1594,23.999999999999987
1634,24.0
1674,25.26606303572451
2,1, 7,21, 0,13, 0.00,10.00,SummerDesignDay
8,17.32447360221357
10,258935568.59914208
1788,0.0
1825,751949683.7065135
2,1, 7,21, 0,13,10.00,20.00,SummerDesignDay
8,17.379251291230806
10,258935568.59914208
1788,0.0
1825,764956830.5523936
2,1, 7,21, 0,13,20.00,30.00,SummerDesignDay
8,17.433921312061729
10,258935568.59914208
1788,0.0
1825,777581760.4076254
2,1, 7,21, 0,13,30.00,40.00,SummerDesignDay
8,17.488473222557489
10,258935568.59914208
1788,0.0
1825,790164155.4326563
2,1, 7,21, 0,13,40.00,50.00,SummerDesignDay
8,17.542913447755134
10,258935568.59914208
1788,0.0
1825,802573052.3201747
2,1, 7,21, 0,13,50.00,60.00,SummerDesignDay
8,17.59724609886134
10,258935568.59914208
1788,0.0
1825,814708036.8360525
2,1, 7,21, 0,13, 0.00,60.00,SummerDesignDay
914,24.000000000000044
954,24.00000000000007
994,24.000000000000019
1034,24.000000000000015
1074,24.00000000000001
1114,24.000000000000058
1154,23.99999999999997
1194,23.99999999996068
1234,23.999999999980675
1274,23.99999999999999
1314,23.999999999999888
1354,24.00000000000001
1394,24.00000000000001
1434,24.000000000000019
1474,24.000000000000033
1514,24.0
1554,24.000000000000005
1594,24.000000000000019
1634,24.000000000000044
1674,25.72616874376513
2,1, 7,21, 0,14, 0.00,10.00,SummerDesignDay
8,17.6311450462694
10,258935568.59914208
1788,0.0
1825,821568444.703047
2,1, 7,21, 0,14,10.00,20.00,SummerDesignDay
8,17.665000449016245
10,258935568.59914208
1788,0.0
1825,829410992.222991
2,1, 7,21, 0,14,20.00,30.00,SummerDesignDay
8,17.698812743128934
10,258935568.59914208
1788,0.0
1825,837186401.2260568
2,1, 7,21, 0,14,30.00,40.00,SummerDesignDay
8,17.732582050940107
10,258935568.59914208
1788,0.0
1825,844827875.5424516
2,1, 7,21, 0,14,40.00,50.00,SummerDesignDay
8,17.766307345121004
10,258935568.59914208
1788,0.0
1825,852175358.227902
2,1, 7,21, 0,14,50.00,60.00,SummerDesignDay
8,17.79999023167558
10,258935568.59914208
1788,0.0
1825,859436445.1676692
2,1, 7,21, 0,14, 0.00,60.00,SummerDesignDay
914,24.000000000000044
954,23.999999999999948
994,24.000000000000087
1034,24.000000000000044
1074,24.000000000000019
1114,24.000000000000058
1154,23.999999999999984
1194,24.000000000000005
1234,24.000000000000015
1274,24.000000000000019
1314,24.000000000000047
1354,24.000000000000026
1394,23.999999999999998
1434,24.000000000000026
1474,24.000000000000026
1514,24.000000000000058
1554,24.000000000000005
1594,24.000000000000015
1634,24.00000000000001
1674,26.07045317427586
2,1, 7,21, 0,15, 0.00,10.00,SummerDesignDay
8,17.79999023167558
10,258935568.59914208
1788,0.0
1825,912538571.1256827
2,1, 7,21, 0,15,10.00,20.00,SummerDesignDay
8,17.79999023167558
10,258935568.59914208
1788,0.0
1825,876616190.5814984
2,1, 7,21, 0,15,20.00,30.00,SummerDesignDay
8,17.79999023167558
10,258935568.59914208
1788,0.0
1825,891976788.2265532
2,1, 7,21, 0,15,30.00,40.00,SummerDesignDay
8,17.79999023167558
10,258935568.59914208
1788,0.0
1825,876966138.6522968
2,1, 7,21, 0,15,40.00,50.00,SummerDesignDay
8,17.79999023167558
10,258935568.59914208
1788,0.0
1825,879206786.2765919
2,1, 7,21, 0,15,50.00,60.00,SummerDesignDay
8,17.79999023167558
10,258935568.59914208
1788,0.0
1825,879403537.6793182
2,1, 7,21, 0,15, 0.00,60.00,SummerDesignDay
914,23.999999999999998
954,24.0
994,23.999999999999955
1034,24.000000000000047
1074,24.000000000000015
1114,24.000000000000005
1154,23.99999999999999
1194,24.000000000000005
1234,24.000000000000005
1274,24.000000000000015
1314,24.000000000000005
1354,24.000000000000026
1394,23.99999999999999
1434,24.000000000000019
1474,24.000000000000019
1514,24.00000000000001
1554,24.000000000000015
1594,23.999999999999998
1634,24.0
1674,23.937324110049045
2,1, 7,21, 0,16, 0.00,10.00,SummerDesignDay
8,17.759562446305357
10,264780191.88999958
1788,0.0
1825,875167037.0746532
2,1, 7,21, 0,16,10.00,20.00,SummerDesignDay
8,17.71907809634183
10,264780191.88999958
1788,0.0
1825,867711573.0358831
2,1, 7,21, 0,16,20.00,30.00,SummerDesignDay
8,17.67853788661001
10,264780191.88999958
1788,0.0
1825,859563667.501521
2,1, 7,21, 0,16,30.00,40.00,SummerDesignDay
8,17.63791796367351
10,264780191.88999958
1788,0.0
1825,850775541.4719802
2,1, 7,21, 0,16,40.00,50.00,SummerDesignDay
8,17.59724609886134
10,264780191.88999958
1788,0.0
1825,841583565.245659
2,1, 7,21, 0,16,50.00,60.00,SummerDesignDay
8,17.55650676726033
10,264780191.88999958
1788,0.0
1825,832123411.4814041
2,1, 7,21, 0,16, 0.00,60.00,SummerDesignDay
914,24.000000000000044
954,24.00000000000006
994,23.99999999999997
1034,24.00000000000003
1074,24.00000000000001
1114,24.000000000000015
1154,24.0
1194,24.00000000000001
1234,24.000000000000019
1274,23.999999999999987
1314,24.000000000000026
1354,24.000000000000069
1394,24.0
1434,24.000000000000033
1474,24.000000000000019
1514,24.000000000000026
1554,24.000000000000033
1594,24.0
1634,23.99999999999999
1674,23.999999999986327
2,1, 7,21, 0,17, 0.00,10.00,SummerDesignDay
8,17.50209486331892
10,256936092.21016456
1788,0.0
1825,816272667.409751
2,1, 7,21, 0,17,10.00,20.00,SummerDesignDay
8,17.447570789624618
10,256936092.21016456
1788,0.0
1825,802997724.1374881
2,1, 7,21, 0,17,20.00,30.00,SummerDesignDay
8,17.392929544208135
10,256936092.21016456
1788,0.0
1825,789962587.7991753
2,1, 7,21, 0,17,30.00,40.00,SummerDesignDay
8,17.33818013976614
10,256936092.21016456
1788,0.0
1825,776797500.2713243
2,1, 7,21, 0,17,40.00,50.00,SummerDesignDay
8,17.283317298559309
10,256936092.21016456
1788,0.0
1825,763534876.306646
2,1, 7,21, 0,17,50.00,60.00,SummerDesignDay
8,17.22833552437677
10,256936092.21016456
1788,0.0
1825,749837748.8996176
2,1, 7,21, 0,17, 0.00,60.00,SummerDesignDay
914,24.000000000000019
954,24.0
994,24.000000000000026
1034,24.00000000000003
1074,24.00000000000003
1114,23.999999999999969
1154,23.999999999999987
1194,24.0
1234,24.00000000000001
1274,24.000000000000026
1314,24.000000000000019
1354,24.000000000000015
1394,24.000000000000015
1434,24.000000000000005
1474,24.0
1514,24.00000000000001
1554,24.0
1594,24.000000000000015
1634,24.000000000000026
1674,24.0
2,1, 7,21, 0,18, 0.00,10.00,SummerDesignDay
8,17.159453019160176
10,241650789.21855483
1788,0.0
1825,719093511.87328
2,1, 7,21, 0,18,10.00,20.00,SummerDesignDay
8,17.090391773337136
10,241650789.21855483
1788,0.0
1825,700729678.1259462
2,1, 7,21, 0,18,20.00,30.00,SummerDesignDay
8,17.021151077964786
10,241650789.21855483
1788,0.0
1825,682935919.1258237
2,1, 7,21, 0,18,30.00,40.00,SummerDesignDay
8,16.951729380464653
10,241650789.21855483
1788,0.0
1825,664892111.4444916
2,1, 7,21, 0,18,40.00,50.00,SummerDesignDay
8,16.882126503829249
10,241650789.21855483
1788,0.0
1825,646967554.5029074
2,1, 7,21, 0,18,50.00,60.00,SummerDesignDay
8,16.812341807494034
10,241650789.21855483
1788,0.0
1825,629077701.2363936
2,1, 7,21, 0,18, 0.00,60.00,SummerDesignDay
914,24.000000000000015
954,23.999999999999987
994,24.000000000000005
1034,24.000000000000058
1074,24.00000000000003
1114,24.000000000000015
1154,24.00000000000008
1194,24.000000000000019
1234,24.000000000000005
1274,24.000000000000015
1314,23.99999999999999
1354,24.000000000000044
1394,24.000000000000005
1434,24.00000000000003
1474,23.99999999999999
1514,24.000000000000058
1554,24.00000000000001
1594,24.000000000000005
1634,24.000000000000015
1674,23.999999999999998
2,1, 7,21, 0,19, 0.00,10.00,SummerDesignDay
8,16.707321072823203
10,226619078.35432766
1788,0.0
1825,583026798.3375107
2,1, 7,21, 0,19,10.00,20.00,SummerDesignDay
8,16.601881826644556
10,226619078.35432766
1788,0.0
1825,555514285.6196623
2,1, 7,21, 0,19,20.00,30.00,SummerDesignDay
8,16.496030555252849
10,226619078.35432766
1788,0.0
1825,529448609.3936685
2,1, 7,21, 0,19,30.00,40.00,SummerDesignDay
8,16.389760181474104
10,226619078.35432766
1788,0.0
1825,503560274.4751363
2,1, 7,21, 0,19,40.00,50.00,SummerDesignDay
8,16.283067654262039
10,226619078.35432766
1788,0.0
1825,477710186.3913999
2,1, 7,21, 0,19,50.00,60.00,SummerDesignDay
8,16.17595057957811
10,226619078.35432766
1788,0.0
1825,452041914.69781437
2,1, 7,21, 0,19, 0.00,60.00,SummerDesignDay
914,24.000000000000005
954,23.999999999999969
994,24.000000000000033
1034,24.000000000000044
1074,23.99999999999999
1114,23.999999999999976
1154,24.000000000000033
1194,24.0
1234,24.0
1274,23.99999999999999
1314,23.99999999999997
1354,24.000000000000005
1394,24.00000000000001
1434,23.999999999999998
1474,24.000000000000005
1514,24.0
1554,24.000000000000026
1594,24.000000000000019
1634,24.000000000000058
1674,23.999999999999998
2,1, 7,21, 0,20, 0.00,10.00,SummerDesignDay
8,16.097123145563505
10,200868073.28199534
1788,0.0
1825,397157527.19577297
2,1, 7,21, 0,20,10.00,20.00,SummerDesignDay
8,16.018070242471564
10,200868073.28199534
1788,0.0
1825,377101567.170646
2,1, 7,21, 0,20,20.00,30.00,SummerDesignDay
8,15.938779752340516
10,200868073.28199534
1788,0.0
1825,357869886.4587263
2,1, 7,21, 0,20,30.00,40.00,SummerDesignDay
8,15.85926152575189
10,200868073.28199534
1788,0.0
1825,338527416.179323
2,1, 7,21, 0,20,40.00,50.00,SummerDesignDay
8,15.779503718563929
10,200868073.28199534
1788,0.0
1825,319030709.3678599
2,1, 7,21, 0,20,50.00,60.00,SummerDesignDay
8,15.699515709672767
10,200868073.28199534
1788,0.0
1825,301828981.6989944
2,1, 7,21, 0,20, 0.00,60.00,SummerDesignDay
914,24.00000000000001
954,24.0
994,23.999999999999998
1034,24.000000000000019
1074,24.00000000000001
1114,24.000000000000019
1154,24.00000000000004
1194,23.995441041418969
1234,23.993367523225044
1274,24.00000000000001
1314,24.000000000000015
1354,24.000000000000005
1394,23.999999999999998
1434,24.000000000000019
1474,24.000000000000005
1514,24.910696705151364
1554,24.000000000000026
1594,24.000000000000033
1634,24.00000000000003
1674,24.000000000000019
2,1, 7,21, 0,21, 0.00,10.00,SummerDesignDay
8,15.63389147320404
10,192121395.70499716
1788,0.0
1825,285413080.0222431
2,1, 7,21, 0,21,10.00,20.00,SummerDesignDay
8,15.56810827419793
10,192121395.70499716
1788,0.0
1825,270147700.9460852
2,1, 7,21, 0,21,20.00,30.00,SummerDesignDay
8,15.502170882753524
10,192121395.70499716
1788,0.0
1825,254103456.599448
2,1, 7,21, 0,21,30.00,40.00,SummerDesignDay
8,15.436068032613852
10,192121395.70499716
1788,0.0
1825,239870695.37544707
2,1, 7,21, 0,21,40.00,50.00,SummerDesignDay
8,15.369804371206009