Program Version,EnergyPlus, Version 8.9.0-eba93e8e1b, YMD=2019.03.20 17:53
1,5,Environment Title[],Latitude[deg],Longitude[deg],Time Zone[],Elevation[m]
2,8,Day of Simulation[],Month[],Day of Month[],DST Indicator[1=yes 0=no],Hour[],StartMinute[],EndMinute[],DayType
3,5,Cumulative Day of Simulation[],Month[],Day of Month[],DST Indicator[1=yes 0=no],DayType  ! When Daily Report Variables Requested
4,2,Cumulative Days of Simulation[],Month[]  ! When Monthly Report Variables Requested
5,1,Cumulative Days of Simulation[] ! When Run Period Report Variables Requested
6,1,Calendar Year of Simulation[] ! When Annual Report Variables Requested
7,9,Environment,Site Outdoor Air Drybulb Temperature [C] !Monthly [Value,Min,Day,Hour,Minute,Max,Day,Hour,Minute]
8,1,Environment,Site Outdoor Air Wetbulb Temperature [C] !TimeStep
927,1,WHOLEBUILDING-AUTOMOTIVE FACILITY ZN,Zone Air Temperature [C] !Hourly
928,7,WHOLEBUILDING-AUTOMOTIVE FACILITY ZN,Zone Air Relative Humidity [%] !Daily [Value,Min,Hour,Minute,Max,Hour,Minute]
967,1,WHOLEBUILDING-CONVENTION CENTRE ZN,Zone Air Temperature [C] !Hourly
968,7,WHOLEBUILDING-CONVENTION CENTRE ZN,Zone Air Relative Humidity [%] !Daily [Value,Min,Hour,Minute,Max,Hour,Minute]
1007,1,WHOLEBUILDING-COURTHOUSE ZN,Zone Air Temperature [C] !Hourly
1008,7,WHOLEBUILDING-COURTHOUSE ZN,Zone Air Relative Humidity [%] !Daily [Value,Min,Hour,Minute,Max,Hour,Minute]
1047,1,WHOLEBUILDING-DINING - BAR/LOUNGE ZN,Zone Air Temperature [C] !Hourly
1048,7,WHOLEBUILDING-DINING - BAR/LOUNGE ZN,Zone Air Relative Humidity [%] !Daily [Value,Min,Hour,Minute,Max,Hour,Minute]
1087,1,WHOLEBUILDING-DINING - CAFETERIA ZN,Zone Air Temperature [C] !Hourly
1088,7,WHOLEBUILDING-DINING - CAFETERIA ZN,Zone Air Relative Humidity [%] !Daily [Value,Min,Hour,Minute,Max,Hour,Minute]
1127,1,WHOLEBUILDING-DINING - FAMILY ZN,Zone Air Temperature [C] !Hourly
1128,7,WHOLEBUILDING-DINING - FAMILY ZN,Zone Air Relative Humidity [%] !Daily [Value,Min,Hour,Minute,Max,Hour,Minute]
1167,1,WHOLEBUILDING-DORMITORY ZN,Zone Air Temperature [C] !Hourly
1168,7,WHOLEBUILDING-DORMITORY ZN,Zone Air Relative Humidity [%] !Daily [Value,Min,Hour,Minute,Max,Hour,Minute]
1207,1,WHOLEBUILDING-EXERCISE CENTRE ZN,Zone Air Temperature [C] !Hourly
1208,7,WHOLEBUILDING-EXERCISE CENTRE ZN,Zone Air Relative Humidity [%] !Daily [Value,Min,Hour,Minute,Max,Hour,Minute]
1247,1,WHOLEBUILDING-FIRE STATION ZN,Zone Air Temperature [C] !Hourly
1248,7,WHOLEBUILDING-FIRE STATION ZN,Zone Air Relative Humidity [%] !Daily [Value,Min,Hour,Minute,Max,Hour,Minute]
1287,1,WHOLEBUILDING-GYMNASIUM ZN,Zone Air Temperature [C] !Hourly
1288,7,WHOLEBUILDING-GYMNASIUM ZN,Zone Air Relative Humidity [%] !Daily [Value,Min,Hour,Minute,Max,Hour,Minute]
1327,1,WHOLEBUILDING-HEALTH-CARE CLINIC ZN,Zone Air Temperature [C] !Hourly
1328,7,WHOLEBUILDING-HEALTH-CARE CLINIC ZN,Zone Air Relative Humidity [%] !Daily [Value,Min,Hour,Minute,Max,Hour,Minute]
1367,1,WHOLEBUILDING-HOSPITAL ZN,Zone Air Temperature [C] !Hourly
1368,7,WHOLEBUILDING-HOSPITAL ZN,Zone Air Relative Humidity [%] !Daily [Value,Min,Hour,Minute,Max,Hour,Minute]
1407,1,WHOLEBUILDING-HOTEL ZN,Zone Air Temperature [C] !Hourly
1408,7,WHOLEBUILDING-HOTEL ZN,Zone Air Relative Humidity [%] !Daily [Value,Min,Hour,Minute,Max,Hour,Minute]
1447,1,WHOLEBUILDING-LIBRARY ZN,Zone Air Temperature [C] !Hourly
1448,7,WHOLEBUILDING-LIBRARY ZN,Zone Air Relative Humidity [%] !Daily [Value,Min,Hour,Minute,Max,Hour,Minute]
1487,1,WHOLEBUILDING-MANUFACTURING FACILITY ZN,Zone Air Temperature [C] !Hourly
1488,7,WHOLEBUILDING-MANUFACTURING FACILITY ZN,Zone Air Relative Humidity [%] !Daily [Value,Min,Hour,Minute,Max,Hour,Minute]
1527,1,WHOLEBUILDING-MOTEL ZN,Zone Air Temperature [C] !Hourly
1528,7,WHOLEBUILDING-MOTEL ZN,Zone Air Relative Humidity [%] !Daily [Value,Min,Hour,Minute,Max,Hour,Minute]
1567,1,WHOLEBUILDING-MOTION PICTURE THEATRE ZN,Zone Air Temperature [C] !Hourly
1568,7,WHOLEBUILDING-MOTION PICTURE THEATRE ZN,Zone Air Relative Humidity [%] !Daily [Value,Min,Hour,Minute,Max,Hour,Minute]
1607,1,WHOLEBUILDING-MULTI-UNIT RESIDENTIAL ZN,Zone Air Temperature [C] !Hourly
1608,7,WHOLEBUILDING-MULTI-UNIT RESIDENTIAL ZN,Zone Air Relative Humidity [%] !Daily [Value,Min,Hour,Minute,Max,Hour,Minute]
1647,1,WHOLEBUILDING-MUSEUM ZN,Zone Air Temperature [C] !Hourly
1648,7,WHOLEBUILDING-MUSEUM ZN,Zone Air Relative Humidity [%] !Daily [Value,Min,Hour,Minute,Max,Hour,Minute]
1687,1,WHOLEBUILDING-OFFICE ZN,Zone Air Temperature [C] !Hourly
1688,7,WHOLEBUILDING-OFFICE ZN,Zone Air Relative Humidity [%] !Daily [Value,Min,Hour,Minute,Max,Hour,Minute]
10,1,Electricity:Facility [J] !TimeStep
1838,1,DistrictCooling:Facility [J] !TimeStep
1801,1,DistrictHeating:Facility [J] !TimeStep
End of Data Dictionary
1,FORT MCMURRAY AP ANN CLG .4% CONDNS DB=>MWB,  56.65,-111.22,  -7.00, 369.10
2,1, 7,21, 0, 1, 0.00,10.00,SummerDesignDay
8,14.218136923962174
10,118187766.39386605
1801,0.0
1838,85125263.48728398
2,1, 7,21, 0, 1,10.00,20.00,SummerDesignDay
8,14.171982153293495
10,118187766.39386605
1801,0.0
1838,80745672.81704182
2,1, 7,21, 0, 1,20.00,30.00,SummerDesignDay
8,14.125744780286427
10,118187766.39386605
1801,0.0
1838,76887030.19409773
2,1, 7,21, 0, 1,30.00,40.00,SummerDesignDay
8,14.079436086331978
10,118187766.39386605
1801,0.0
1838,73073680.50667934
2,1, 7,21, 0, 1,40.00,50.00,SummerDesignDay
8,14.033050387896898
10,118187766.39386605
1801,0.0
1838,69297265.62174918
2,1, 7,21, 0, 1,50.00,60.00,SummerDesignDay
8,13.986581233564835
10,118187766.39386605
1801,0.0
1838,65743476.02320908
2,1, 7,21, 0, 1, 0.00,60.00,SummerDesignDay
927,22.434768264362476
967,23.13837381346296
1007,23.718202184937217
1047,24.00000000000001
1087,24.000000000000033
1127,24.000000000000044
1167,24.000000000000005
1207,23.998836655094409
1247,24.00000000000001
1287,24.0
1327,22.150159782250456
1367,24.0
1407,24.000000000000015
1447,23.5991900369134
1487,23.44435102757737
1527,24.000000000000019
1567,23.64781875638404
1607,24.000000000000005
1647,25.084017223678769
1687,25.022674013170517
2,1, 7,21, 0, 2, 0.00,10.00,SummerDesignDay
8,13.95555882260429
10,80530579.7915762
1801,0.0
1838,37781836.32500819
2,1, 7,21, 0, 2,10.00,20.00,SummerDesignDay
8,13.924507755336454
10,80530579.7915762
1801,0.0
1838,36290004.25000299
2,1, 7,21, 0, 2,20.00,30.00,SummerDesignDay
8,13.893416042989206
10,80530579.7915762
1801,0.0
1838,35008665.43371455
2,1, 7,21, 0, 2,30.00,40.00,SummerDesignDay
8,13.862289589689029
10,80530579.7915762
1801,0.0
1838,33729218.16909784
2,1, 7,21, 0, 2,40.00,50.00,SummerDesignDay
8,13.831134407608739
10,80530579.7915762
1801,0.0
1838,32445073.72175734
2,1, 7,21, 0, 2,50.00,60.00,SummerDesignDay
8,13.799938415548118
10,80530579.7915762
1801,0.0
1838,31226665.35595362
2,1, 7,21, 0, 2, 0.00,60.00,SummerDesignDay
927,22.010785548694213
967,22.750477450132725
1007,23.376000137404416
1047,24.05224123124202
1087,23.920756642886674
1127,24.24536029417723
1167,24.000000000000015
1207,23.44699179318292
1247,24.000000000000019
1287,23.318990076890726
1327,21.798193440311129
1367,23.99971466877838
1407,24.000000000000005
1447,23.38549693576807
1487,23.197114888024843
1527,24.0
1567,23.26570900772741
1607,24.000000000000005
1647,24.921932119645608
1687,24.886750921443654
2,1, 7,21, 0, 3, 0.00,10.00,SummerDesignDay
8,13.776521671948676
10,52120816.22678871
1801,0.0
1838,30439144.439042577
2,1, 7,21, 0, 3,10.00,20.00,SummerDesignDay
8,13.753085235778466
10,52120816.22678871
1801,0.0
1838,29609499.96980782
2,1, 7,21, 0, 3,20.00,30.00,SummerDesignDay
8,13.729636002354969
10,52120816.22678871
1801,0.0
1838,28768148.069280063
2,1, 7,21, 0, 3,30.00,40.00,SummerDesignDay
8,13.706147375533054
10,52120816.22678871
1801,0.0
1838,27920164.800622178
2,1, 7,21, 0, 3,40.00,50.00,SummerDesignDay
8,13.682651961920304
10,52120816.22678871
1801,0.0
1838,27068425.135761359
2,1, 7,21, 0, 3,50.00,60.00,SummerDesignDay
8,13.659136670643687
10,52120816.22678871
1801,0.0
1838,26215484.275520658
2,1, 7,21, 0, 3, 0.00,60.00,SummerDesignDay
927,21.64555168925136
967,22.40575565973641
1007,23.066300262316344
1047,23.51313630735306
1087,23.353212524200406
1127,23.745172979300084
1167,24.0
1207,22.720677892154347
1247,24.000000000000005
1287,22.203628320262486
1327,21.521415638460856
1367,23.92133765707308
1407,24.00000000000001
1447,23.210522865282845
1487,22.998818618864879
1527,24.0
1567,22.917838756537138
1607,24.0
1647,24.786731735391088
1687,24.77273460808736
2,1, 7,21, 0, 4, 0.00,10.00,SummerDesignDay
8,13.63560137410855
10,48138349.37021436
1801,0.0
1838,23157785.975743694
2,1, 7,21, 0, 4,10.00,20.00,SummerDesignDay
8,13.612040802606578
10,48138349.37021436
1801,0.0
1838,22101576.246016917
2,1, 7,21, 0, 4,20.00,30.00,SummerDesignDay
8,13.58846620506876
10,48138349.37021436
1801,0.0
1838,21151373.257194967
2,1, 7,21, 0, 4,30.00,40.00,SummerDesignDay
8,13.56487178447336
10,48138349.37021436
1801,0.0
1838,20214928.613715985
2,1, 7,21, 0, 4,40.00,50.00,SummerDesignDay
8,13.541257354069103
10,48138349.37021436
1801,0.0
1838,19289637.723584784
2,1, 7,21, 0, 4,50.00,60.00,SummerDesignDay
8,13.517617463812285
10,48138349.37021436
1801,0.0
1838,18372246.661374079
2,1, 7,21, 0, 4, 0.00,60.00,SummerDesignDay
927,21.314653355677185
967,22.088813262734367
1007,22.759600081659646
1047,23.161573859768514
1087,23.00260515161033
1127,23.371686570859699
1167,24.0
1207,22.37895237197576
1247,23.999999999999998
1287,21.58391594454766
1327,21.276045303102078
1367,23.7444709860287
1407,24.000000000000015
1447,23.05342636440143
1487,22.8214974139991
1527,24.0
1567,22.5802891133072
1607,24.0
1647,24.663436534609955
1687,24.660706999363439
2,1, 7,21, 0, 5, 0.00,10.00,SummerDesignDay
8,13.50185415824011
10,48138349.37021436
1801,0.0
1838,17514299.077053947
2,1, 7,21, 0, 5,10.00,20.00,SummerDesignDay
8,13.486076034032447
10,48138349.37021436
1801,0.0
1838,17647812.362510154
2,1, 7,21, 0, 5,20.00,30.00,SummerDesignDay
8,13.470289340350983
10,48138349.37021436
1801,0.0
1838,17727748.35224118
2,1, 7,21, 0, 5,30.00,40.00,SummerDesignDay
8,13.454493322631063
10,48138349.37021436
1801,0.0
1838,18052432.921341167
2,1, 7,21, 0, 5,40.00,50.00,SummerDesignDay
8,13.438688835118548
10,48138349.37021436
1801,0.0
1838,18421938.35627523
2,1, 7,21, 0, 5,50.00,60.00,SummerDesignDay
8,13.422888173889437
10,48138349.37021436
1801,0.0
1838,18734251.751852383
2,1, 7,21, 0, 5, 0.00,60.00,SummerDesignDay
927,21.08994176535983
967,22.088656074867527
1007,22.670820898210576
1047,22.919593863428479
1087,22.827410239035698
1127,23.11171738547472
1167,24.0
1207,22.181231554915443
1247,23.98950895277113
1287,21.296692396117604
1327,21.05591092886006
1367,23.583288059860789
1407,24.0
1447,22.90723202945439
1487,22.660402430349025
1527,24.000000000000005
1567,22.33478271686884
1607,24.000000000000005
1647,24.658067728934996
1687,24.545561726850925
2,1, 7,21, 0, 6, 0.00,10.00,SummerDesignDay
8,13.438688835118548
10,48138349.37021436
1801,0.0
1838,19217786.807850176
2,1, 7,21, 0, 6,10.00,20.00,SummerDesignDay
8,13.454493322631063
10,48138349.37021436
1801,0.0
1838,19630692.84224104
2,1, 7,21, 0, 6,20.00,30.00,SummerDesignDay
8,13.470289340350983
10,48138349.37021436
1801,0.0
1838,19986428.98279057
2,1, 7,21, 0, 6,30.00,40.00,SummerDesignDay
8,13.486076034032447
10,48138349.37021436
1801,0.0
1838,20306254.18796298
2,1, 7,21, 0, 6,40.00,50.00,SummerDesignDay
8,13.50185415824011
10,48138349.37021436
1801,0.0
1838,20605170.855174364
2,1, 7,21, 0, 6,50.00,60.00,SummerDesignDay
8,13.517617463812285
10,48138349.37021436
1801,0.0
1838,20902770.31600742
2,1, 7,21, 0, 6, 0.00,60.00,SummerDesignDay
927,21.190604727584508
967,23.182952011353206
1007,23.0539072374
1047,22.76621064445469
1087,22.79771309145309
1127,22.9559014538678
1167,24.0
1207,22.073669814409575
1247,23.927361184115246
1287,21.327614863756055
1327,20.951162340564737
1367,23.54236809966116
1407,24.00000000000003
1447,22.813445985871966
1487,22.56948783761764
1527,24.0
1567,22.40271286534248
1607,24.0
1647,25.092300385388385
1687,24.463725363078088
2,1, 7,21, 0, 7, 0.00,10.00,SummerDesignDay
8,13.572736920571789
10,55068291.69556778
1801,0.0
1838,37211376.1758531
2,1, 7,21, 0, 7,10.00,20.00,SummerDesignDay
8,13.627748229152554
10,55068291.69556778
1801,0.0
1838,25468940.26773903
2,1, 7,21, 0, 7,20.00,30.00,SummerDesignDay
8,13.682651961920304
10,55068291.69556778
1801,0.0
1838,28000662.86098586
2,1, 7,21, 0, 7,30.00,40.00,SummerDesignDay
8,13.737448093244995
10,55068291.69556778
1801,0.0
1838,33838435.77016369
2,1, 7,21, 0, 7,40.00,50.00,SummerDesignDay
8,13.792137011831216
10,55068291.69556778
1801,0.0
1838,31542448.16977267
2,1, 7,21, 0, 7,50.00,60.00,SummerDesignDay
8,13.846719282840333
10,55068291.69556778
1801,0.0
1838,32660178.913932288
2,1, 7,21, 0, 7, 0.00,60.00,SummerDesignDay
927,21.61149660870879
967,24.46021059552829
1007,23.347577061004974
1047,22.775277874859659
1087,22.8021119102624
1127,22.967001135870644
1167,24.000000000000005
1207,22.122797972010337
1247,23.98408518655373
1287,21.68793091053543
1327,21.060019075874945
1367,23.721902358306193
1407,23.999999999999998
1447,22.82816352214358
1487,22.615543775345839
1527,24.000000000000005
1567,22.75011813364735
1607,24.0
1647,25.55924976628056
1687,23.945252390700387
2,1, 7,21, 0, 8, 0.00,10.00,SummerDesignDay
8,13.978831900527043
10,90469872.06197718
1801,12683359.393107174
1838,106901758.95021256
2,1, 7,21, 0, 8,10.00,20.00,SummerDesignDay
8,14.110321014287419
10,90469872.06197718
1801,0.0
1838,79335694.70892683
2,1, 7,21, 0, 8,20.00,30.00,SummerDesignDay
8,14.241191509616986
10,90469872.06197718
1801,5288265.010804534
1838,110148469.44395489
2,1, 7,21, 0, 8,30.00,40.00,SummerDesignDay
8,14.371447531304272
10,90469872.06197718
1801,0.0
1838,100389783.16351538
2,1, 7,21, 0, 8,40.00,50.00,SummerDesignDay
8,14.501093766564925
10,90469872.06197718
1801,0.0
1838,109874555.19729543
2,1, 7,21, 0, 8,50.00,60.00,SummerDesignDay
8,14.630134792273804
10,90469872.06197718
1801,0.0
1838,119331822.73362378
2,1, 7,21, 0, 8, 0.00,60.00,SummerDesignDay
927,22.648168538176255
967,23.98122066372983
1007,23.955159982783486
1047,23.034760203874958
1087,23.08061070100476
1127,23.237324739016456
1167,24.00000000000001
1207,22.421688985751719
1247,23.99999999999962
1287,22.654154340215869
1327,22.14289617775874
1367,23.99025879218352
1407,24.00000000000001
1447,23.015335634030224
1487,23.169760366876305
1527,24.000000000000005
1567,23.584372557272375
1607,24.00000000000001
1647,23.94424384522621
1687,23.99999999999996
2,1, 7,21, 0, 9, 0.00,10.00,SummerDesignDay
8,14.773641492809972
10,174767295.4928332
1801,0.0
1838,166297674.40295238
2,1, 7,21, 0, 9,10.00,20.00,SummerDesignDay
8,14.91640948124148
10,174767295.4928332
1801,0.0
1838,196243132.0753172
2,1, 7,21, 0, 9,20.00,30.00,SummerDesignDay
8,15.05843890714102
10,174767295.4928332
1801,0.0
1838,216852817.57522554
2,1, 7,21, 0, 9,30.00,40.00,SummerDesignDay
8,15.199735893563798
10,174767295.4928332
1801,0.0
1838,232165405.26190163
2,1, 7,21, 0, 9,40.00,50.00,SummerDesignDay
8,15.340306256439395
10,174767295.4928332
1801,0.0
1838,253710127.80338536
2,1, 7,21, 0, 9,50.00,60.00,SummerDesignDay
8,15.48015101768072
10,174767295.4928332
1801,0.0
1838,273099573.1960184
2,1, 7,21, 0, 9, 0.00,60.00,SummerDesignDay
927,23.979983441016335
967,23.99999999999792
1007,23.999999999999063
1047,23.66964778415578
1087,23.744262231832836
1127,23.840784755175297
1167,24.000000000000005
1207,23.099614432396846
1247,24.0
1287,23.941735165933808
1327,23.59934362188048
1367,23.999999999944796
1407,23.999999999999998
1447,23.87654417268017
1487,23.988147939747546
1527,24.000000000000005
1567,23.999998910805606
1607,24.000000000000005
1647,23.999999999999209
1687,24.00000000000001
2,1, 7,21, 0,10, 0.00,10.00,SummerDesignDay
8,15.60467292907716
10,226603114.09831143
1801,0.0
1838,331111777.2568359
2,1, 7,21, 0,10,10.00,20.00,SummerDesignDay
8,15.72862731650033
10,226603114.09831143
1801,0.0
1838,350616385.96413818
2,1, 7,21, 0,10,20.00,30.00,SummerDesignDay
8,15.852017409284228
10,226603114.09831143
1801,0.0
1838,375379866.44610539
2,1, 7,21, 0,10,30.00,40.00,SummerDesignDay
8,15.974848118364367
10,226603114.09831143
1801,0.0
1838,390624100.74501058
2,1, 7,21, 0,10,40.00,50.00,SummerDesignDay
8,16.097123145563505
10,226603114.09831143
1801,0.0
1838,408694475.7948159
2,1, 7,21, 0,10,50.00,60.00,SummerDesignDay
8,16.218846351168599
10,226603114.09831143
1801,0.0
1838,425287392.6134738
2,1, 7,21, 0,10, 0.00,60.00,SummerDesignDay
927,23.99999999996555
967,24.000000000000044
1007,23.999999999999984
1047,23.999623314686248
1087,23.999932998596859
1127,23.999993771819367
1167,24.000000000000015
1207,23.940951373465084
1247,24.00000000000001
1287,23.99999999944545
1327,23.99995764450611
1367,24.000000000000026
1407,24.00000000000001
1447,23.999999999818539
1487,23.999999999987396
1527,23.999999999999987
1567,24.000000000000044
1607,24.000000000000005
1647,24.000000000000044
1687,24.00000000000001
2,1, 7,21, 0,11, 0.00,10.00,SummerDesignDay
8,16.325793027093189
10,243912970.0392473
1801,0.0
1838,460410187.59073188
2,1, 7,21, 0,11,10.00,20.00,SummerDesignDay
8,16.432322158488288
10,243912970.0392473
1801,0.0
1838,476211038.55077168
2,1, 7,21, 0,11,20.00,30.00,SummerDesignDay
8,16.538424180249178
10,243912970.0392473
1801,0.0
1838,490547579.5894897
2,1, 7,21, 0,11,30.00,40.00,SummerDesignDay
8,16.644108396469087
10,243912970.0392473
1801,0.0
1838,504474043.7599984
2,1, 7,21, 0,11,40.00,50.00,SummerDesignDay
8,16.749376736593655
10,243912970.0392473
1801,0.0
1838,517917019.01094439
2,1, 7,21, 0,11,50.00,60.00,SummerDesignDay
8,16.854232613237156
10,243912970.0392473
1801,0.0
1838,530968855.60547879
2,1, 7,21, 0,11, 0.00,60.00,SummerDesignDay
927,24.00000000000006
967,24.000000000000076
1007,24.000000000000019
1047,23.999999999865286
1087,23.99999999997863
1127,23.999999999998079
1167,24.0
1207,23.9999999763783
1247,23.999999999999998
1287,23.99999999999997
1327,23.999999999629705
1367,23.99999999999999
1407,24.0
1447,24.000000000000005
1487,24.00000000000004
1527,24.000000000000005
1567,24.000000000000019
1607,24.00000000000001
1647,24.00000000000003
1687,24.000000000000047
2,1, 7,21, 0,12, 0.00,10.00,SummerDesignDay
8,16.92390823520069
10,254135384.9650667
1801,0.0
1838,555334760.2624934
2,1, 7,21, 0,12,10.00,20.00,SummerDesignDay
8,16.99340178950456
10,254135384.9650667
1801,0.0
1838,565323263.9732325
2,1, 7,21, 0,12,20.00,30.00,SummerDesignDay
8,17.06272006743463
10,254135384.9650667
1801,0.0
1838,574703977.0902301
2,1, 7,21, 0,12,30.00,40.00,SummerDesignDay
8,17.131853229172639
10,254135384.9650667
1801,0.0
1838,584014942.8106154
2,1, 7,21, 0,12,40.00,50.00,SummerDesignDay
8,17.200807172194087
10,254135384.9650667
1801,0.0
1838,593199000.2877048
2,1, 7,21, 0,12,50.00,60.00,SummerDesignDay
8,17.269582116758607
10,254135384.9650667
1801,0.0
1838,602175780.8055233
2,1, 7,21, 0,12, 0.00,60.00,SummerDesignDay
927,24.000000000000047
967,24.0
1007,24.000000000000026
1047,24.00000000000001
1087,24.00000000000001
1127,24.000000000000033
1167,24.000000000000015
1207,24.000000000000005
1247,23.999999999999998
1287,24.000000000000019
1327,23.99999999999999
1367,24.000000000000005
1407,24.00000000000004
1447,24.000000000000019
1487,24.0
1527,24.0
1567,24.000000000000047
1607,24.00000000000001
1647,24.000000000000019
1687,24.000000000000019
2,1, 7,21, 0,13, 0.00,10.00,SummerDesignDay
8,17.32447360221357
10,250152918.1084924
1801,0.0
1838,621147627.9193093
2,1, 7,21, 0,13,10.00,20.00,SummerDesignDay
8,17.379251291230806
10,250152918.1084924
1801,0.0
1838,629044951.500578
2,1, 7,21, 0,13,20.00,30.00,SummerDesignDay
8,17.433921312061729
10,250152918.1084924
1801,0.0
1838,636559795.9313096
2,1, 7,21, 0,13,30.00,40.00,SummerDesignDay
8,17.488473222557489
10,250152918.1084924
1801,0.0
1838,643871460.4391213
2,1, 7,21, 0,13,40.00,50.00,SummerDesignDay
8,17.542913447755134
10,250152918.1084924
1801,0.0
1838,650774834.1432006
2,1, 7,21, 0,13,50.00,60.00,SummerDesignDay
8,17.59724609886134
10,250152918.1084924
1801,0.0
1838,657236219.2835995
2,1, 7,21, 0,13, 0.00,60.00,SummerDesignDay
927,24.000000000000026
967,24.00000000000003
1007,24.0
1047,24.0
1087,24.000000000000055
1127,24.000000000000055
1167,24.000000000000005
1207,24.00000000000003
1247,24.000000000000005
1287,24.0
1327,24.00000000000001
1367,24.0
1407,24.000000000000026
1447,24.000000000000026
1487,24.0
1527,24.0
1567,23.999999999999998
1607,24.000000000000019
1647,23.999999999999987
1687,24.000000000000019
2,1, 7,21, 0,14, 0.00,10.00,SummerDesignDay
8,17.6311450462694
10,250152918.1084924
1801,0.0
1838,658000350.4756324
2,1, 7,21, 0,14,10.00,20.00,SummerDesignDay
8,17.665000449016245
10,250152918.1084924
1801,0.0
1838,661922926.0666263
2,1, 7,21, 0,14,20.00,30.00,SummerDesignDay
8,17.698812743128934
10,250152918.1084924
1801,0.0
1838,665808290.0502139
2,1, 7,21, 0,14,30.00,40.00,SummerDesignDay
8,17.732582050940107
10,250152918.1084924
1801,0.0
1838,669659144.8490925
2,1, 7,21, 0,14,40.00,50.00,SummerDesignDay
8,17.766307345121004
10,250152918.1084924
1801,0.0
1838,673600862.3902088
2,1, 7,21, 0,14,50.00,60.00,SummerDesignDay
8,17.79999023167558
10,250152918.1084924
1801,0.0
1838,677613059.3746653
2,1, 7,21, 0,14, 0.00,60.00,SummerDesignDay
927,24.0000000000001
967,24.000000000000026
1007,24.000000000000019
1047,23.999999999999984
1087,24.00000000000003
1127,24.000000000000033
1167,24.000000000000005
1207,24.000000000000015
1247,24.00000000000001
1287,24.00000000000006
1327,24.000000000000026
1367,23.999999999999998
1407,24.00000000000001
1447,24.0
1487,24.00000000000003
1527,24.00000000000001
1567,24.000000000000005
1607,23.999999999999984
1647,24.00000000000003
1687,24.000000000000019
2,1, 7,21, 0,15, 0.00,10.00,SummerDesignDay
8,17.79999023167558
10,250152918.1084924
1801,0.0
1838,671776481.7371314
2,1, 7,21, 0,15,10.00,20.00,SummerDesignDay
8,17.79999023167558
10,250152918.1084924
1801,0.0
1838,672364818.8119699
2,1, 7,21, 0,15,20.00,30.00,SummerDesignDay
8,17.79999023167558
10,250152918.1084924
1801,0.0
1838,673172404.171275
2,1, 7,21, 0,15,30.00,40.00,SummerDesignDay
8,17.79999023167558
10,250152918.1084924
1801,0.0
1838,673824855.5655297
2,1, 7,21, 0,15,40.00,50.00,SummerDesignDay
8,17.79999023167558
10,250152918.1084924
1801,0.0
1838,674238949.6356667
2,1, 7,21, 0,15,50.00,60.00,SummerDesignDay
8,17.79999023167558
10,250152918.1084924
1801,0.0
1838,674341394.9511538
2,1, 7,21, 0,15, 0.00,60.00,SummerDesignDay
927,23.999999999999955
967,23.999999999999984
1007,24.000000000000044
1047,24.00000000000003
1087,24.0
1127,24.000000000000033
1167,24.00000000000003
1207,24.00000000000001
1247,24.0
1287,24.000000000000005
1327,24.0
1367,23.999999999999976
1407,24.00000000000004
1447,24.000000000000015
1487,24.0
1527,24.0
1567,24.000000000000047
1607,24.00000000000003
1647,24.000000000000033
1687,24.00000000000003
2,1, 7,21, 0,16, 0.00,10.00,SummerDesignDay
8,17.759562446305357
10,250152918.1084924
1801,0.0
1838,660913067.197693
2,1, 7,21, 0,16,10.00,20.00,SummerDesignDay
8,17.71907809634183
10,250152918.1084924
1801,0.0
1838,656496438.7297516
2,1, 7,21, 0,16,20.00,30.00,SummerDesignDay
8,17.67853788661001
10,250152918.1084924
1801,0.0
1838,651726936.6972929
2,1, 7,21, 0,16,30.00,40.00,SummerDesignDay
8,17.63791796367351
10,250152918.1084924
1801,0.0
1838,646534371.8111987
2,1, 7,21, 0,16,40.00,50.00,SummerDesignDay
8,17.59724609886134
10,250152918.1084924
1801,0.0
1838,641017917.0362986
2,1, 7,21, 0,16,50.00,60.00,SummerDesignDay
8,17.55650676726033
10,250152918.1084924
1801,0.0
1838,635222247.8361611
2,1, 7,21, 0,16, 0.00,60.00,SummerDesignDay
927,24.000000000000019
967,23.99999999999999
1007,24.000000000000005
1047,24.000000000000026
1087,24.00000000000003
1127,23.99999999999999
1167,24.0
1207,24.00000000000001
1247,24.000000000000019
1287,24.000000000000033
1327,24.000000000000019
1367,23.99999999999996
1407,24.00000000000001
1447,24.00000000000001
1487,24.00000000000001
1527,24.00000000000001
1567,24.000000000000076
1607,24.000000000000033
1647,24.00000000000001
1687,24.000000000000015
2,1, 7,21, 0,17, 0.00,10.00,SummerDesignDay
8,17.50209486331892
10,250996661.08625183
1801,0.0
1838,631373239.0112475
2,1, 7,21, 0,17,10.00,20.00,SummerDesignDay
8,17.447570789624618
10,250996661.08625183
1801,0.0
1838,624276634.4330325
2,1, 7,21, 0,17,20.00,30.00,SummerDesignDay
8,17.392929544208135
10,250996661.08625183
1801,0.0
1838,616978523.504859
2,1, 7,21, 0,17,30.00,40.00,SummerDesignDay
8,17.33818013976614
10,250996661.08625183
1801,0.0
1838,609464118.868968
2,1, 7,21, 0,17,40.00,50.00,SummerDesignDay
8,17.283317298559309
10,250996661.08625183
1801,0.0
1838,601698171.0508344
2,1, 7,21, 0,17,50.00,60.00,SummerDesignDay
8,17.22833552437677
10,250996661.08625183
1801,0.0
1838,593701644.6254586
2,1, 7,21, 0,17, 0.00,60.00,SummerDesignDay
927,24.000000000000044
967,24.00000000000003
1007,24.000000000000047
1047,24.00000000000003
1087,24.00000000000003
1127,23.999999999999987
1167,24.000000000000005
1207,24.00000000000001
1247,24.000000000000026
1287,23.999999999999998
1327,24.00000000000001
1367,24.000000000000015
1407,24.000000000000019
1447,24.00000000000003
1487,24.000000000000019
1527,24.000000000000005
1567,24.00000000000007
1607,24.0
1647,24.000000000000026
1687,24.0
2,1, 7,21, 0,18, 0.00,10.00,SummerDesignDay
8,17.159453019160176
10,242896728.49927724
1801,0.0
1838,580369726.4878219
2,1, 7,21, 0,18,10.00,20.00,SummerDesignDay
8,17.090391773337136
10,242896728.49927724
1801,0.0
1838,570107880.0611136
2,1, 7,21, 0,18,20.00,30.00,SummerDesignDay
8,17.021151077964786
10,242896728.49927724
1801,0.0
1838,559860912.4481806
2,1, 7,21, 0,18,30.00,40.00,SummerDesignDay
8,16.951729380464653
10,242896728.49927724
1801,0.0
1838,549768918.2366924
2,1, 7,21, 0,18,40.00,50.00,SummerDesignDay
8,16.882126503829249
10,242896728.49927724
1801,0.0
1838,539762893.1949272
2,1, 7,21, 0,18,50.00,60.00,SummerDesignDay
8,16.812341807494034
10,242896728.49927724
1801,0.0
1838,529824955.89203068
2,1, 7,21, 0,18, 0.00,60.00,SummerDesignDay
927,24.000000000000015
967,24.0
1007,24.000000000000033
1047,24.000000000000047
1087,24.00000000000001
1127,24.000000000000058
1167,24.00000000000001
1207,23.99999999999999
1247,24.000000000000019
1287,24.000000000000015
1327,24.00000000000001
1367,24.0
1407,24.0
1447,24.000000000000005
1487,23.99999999999999
1527,24.00000000000001
1567,24.000000000000055
1607,24.00000000000004
1647,24.000000000000033
1687,24.000000000000019
2,1, 7,21, 0,19, 0.00,10.00,SummerDesignDay
8,16.707321072823203
10,208209517.18896923
1801,0.0
1838,494964040.938173
2,1, 7,21, 0,19,10.00,20.00,SummerDesignDay
8,16.601881826644556
10,208209517.18896923
1801,0.0
1838,479348319.8788996
2,1, 7,21, 0,19,20.00,30.00,SummerDesignDay
8,16.496030555252849
10,208209517.18896923
1801,0.0
1838,465413205.1267558
2,1, 7,21, 0,19,30.00,40.00,SummerDesignDay
8,16.389760181474104
10,208209517.18896923
1801,0.0
1838,451756438.3861543
2,1, 7,21, 0,19,40.00,50.00,SummerDesignDay
8,16.283067654262039
10,208209517.18896923
1801,0.0
1838,438462867.39305236
2,1, 7,21, 0,19,50.00,60.00,SummerDesignDay
8,16.17595057957811
10,208209517.18896923
1801,0.0
1838,425401129.8365148
2,1, 7,21, 0,19, 0.00,60.00,SummerDesignDay
927,24.00000000000001
967,23.999999999999987
1007,23.999999999999984
1047,24.000000000000055
1087,23.999999999999987
1127,23.999999999999984
1167,24.000000000000015
1207,23.999999999999998
1247,23.999999999999984
1287,24.000000000000015
1327,23.99999999999999
1367,24.0
1407,24.0
1447,24.00000000000003
1487,24.000000000000019
1527,24.000000000000015
1567,24.000000000000058
1607,24.0
1647,24.000000000000033
1687,24.00000000000001
2,1, 7,21, 0,20, 0.00,10.00,SummerDesignDay
8,16.097123145563505
10,194848378.38675667
1801,0.0
1838,392972141.1928766
2,1, 7,21, 0,20,10.00,20.00,SummerDesignDay
8,16.018070242471564
10,194848378.38675667
1801,0.0
1838,382288208.195682
2,1, 7,21, 0,20,20.00,30.00,SummerDesignDay
8,15.938779752340516
10,194848378.38675667
1801,0.0
1838,372315630.5449489
2,1, 7,21, 0,20,30.00,40.00,SummerDesignDay
8,15.85926152575189
10,194848378.38675667
1801,0.0
1838,361968988.7288898
2,1, 7,21, 0,20,40.00,50.00,SummerDesignDay
8,15.779503718563929
10,194848378.38675667
1801,0.0
1838,351415152.32112929
2,1, 7,21, 0,20,50.00,60.00,SummerDesignDay
8,15.699515709672767
10,194848378.38675667
1801,0.0
1838,340541052.1228922
2,1, 7,21, 0,20, 0.00,60.00,SummerDesignDay
927,25.060695043126555
967,24.000000000000026
1007,23.999999999999987
1047,24.000000000000019
1087,24.000000000000015
1127,24.000000000000026
1167,24.000000000000005
1207,24.00000000000001
1247,24.000000000000005
1287,24.000000000000019
1327,24.0
1367,24.000000000000019
1407,24.000000000000015
1447,24.000000000000015
1487,24.00000000000001
1527,24.000000000000005
1567,24.000000000000019
1607,24.000000000000026
1647,24.0
1687,24.000000000000015
2,1, 7,21, 0,21, 0.00,10.00,SummerDesignDay
8,15.63389147320404
10,195152125.85952506
1801,0.0
1838,331620515.0162824
2,1, 7,21, 0,21,10.00,20.00,SummerDesignDay
8,15.56810827419793
10,195152125.85952506
1801,0.0
1838,321071176.01953819
2,1, 7,21, 0,21,20.00,30.00,SummerDesignDay
8,15.502170882753524
10,195152125.85952506
1801,0.0
1838,310426154.92018678
2,1, 7,21, 0,21,30.00,40.00,SummerDesignDay
8,15.436068032613852
10,195152125.85952506
1801,0.0
1838,299737824.2591487
2,1, 7,21, 0,21,40.00,50.00,SummerDesignDay
8,15.369804371206009
10,195152125.85952506
1801,0.0
1838,289659749.271756
2,1, 7,21, 0,21,50.00,60.00,SummerDesignDay
8,15.303384603594449
10,195152125.85952506
1801,0.0
1838,279337376.00360658
2,1, 7,21, 0,21, 0.00,60.00,SummerDesignDay
927,24.796649425779596
967,24.000000000000026
1007,24.000000000000026
1047,24.00000000000006
1087,24.000000000000019
1127,24.000000000000047
1167,24.000000000000015
1207,24.00000000000003
1247,24.00000000000001
1287,24.00000000000004
1327,23.999480171192045
1367,23.99999999999997
1407,24.00000000000001
1447,24.000000000000015
1487,23.99999999999999
1527,24.000000000000019
1567,23.99999999999999
1607,24.000000000000019
1647,24.000000000000019
1687,24.000000000000005
2,1, 7,21, 0,22, 0.00,10.00,SummerDesignDay
8,15.236797685071274