Program Version,EnergyPlus, Version 8.9.0-eba93e8e1b, YMD=2019.04.04 17:58
1,5,Environment Title[],Latitude[deg],Longitude[deg],Time Zone[],Elevation[m]
2,8,Day of Simulation[],Month[],Day of Month[],DST Indicator[1=yes 0=no],Hour[],StartMinute[],EndMinute[],DayType
3,5,Cumulative Day of Simulation[],Month[],Day of Month[],DST Indicator[1=yes 0=no],DayType  ! When Daily Report Variables Requested
4,2,Cumulative Days of Simulation[],Month[]  ! When Monthly Report Variables Requested
5,1,Cumulative Days of Simulation[] ! When Run Period Report Variables Requested
6,1,Calendar Year of Simulation[] ! When Annual Report Variables Requested
7,9,Environment,Site Outdoor Air Drybulb Temperature [C] !Monthly [Value,Min,Day,Hour,Minute,Max,Day,Hour,Minute]
8,1,Environment,Site Outdoor Air Wetbulb Temperature [C] !TimeStep
555,1,ALL_ST=HOSPITAL - PHARMACY_FL=STORY 1_SCH=C,Zone Air Temperature [C] !Hourly
556,7,ALL_ST=HOSPITAL - PHARMACY_FL=STORY 1_SCH=C,Zone Air Relative Humidity [%] !Daily [Value,Min,Hour,Minute,Max,Hour,Minute]
595,1,ALL_ST=HOSPITAL - PHYSICAL THERAPY_FL=STORY 1_SCH=C,Zone Air Temperature [C] !Hourly
596,7,ALL_ST=HOSPITAL - PHYSICAL THERAPY_FL=STORY 1_SCH=C,Zone Air Relative Humidity [%] !Daily [Value,Min,Hour,Minute,Max,Hour,Minute]
635,1,ALL_ST=HOSPITAL - RADIOLOGY/IMAGING_FL=STORY 1_SCH=H,Zone Air Temperature [C] !Hourly
636,7,ALL_ST=HOSPITAL - RADIOLOGY/IMAGING_FL=STORY 1_SCH=H,Zone Air Relative Humidity [%] !Daily [Value,Min,Hour,Minute,Max,Hour,Minute]
675,1,ALL_ST=HOSPITAL - RECOVERY_FL=STORY 1_SCH=H,Zone Air Temperature [C] !Hourly
676,7,ALL_ST=HOSPITAL - RECOVERY_FL=STORY 1_SCH=H,Zone Air Relative Humidity [%] !Daily [Value,Min,Hour,Minute,Max,Hour,Minute]
715,1,ALL_ST=HOTEL/MOTEL - DINING_FL=STORY 1_SCH=B,Zone Air Temperature [C] !Hourly
716,7,ALL_ST=HOTEL/MOTEL - DINING_FL=STORY 1_SCH=B,Zone Air Relative Humidity [%] !Daily [Value,Min,Hour,Minute,Max,Hour,Minute]
10,1,Electricity:Facility [J] !TimeStep
321,1,Gas:Facility [J] !TimeStep
End of Data Dictionary
1,FORT MCMURRAY AP ANN CLG .4% CONDNS DB=>MWB,  56.65,-111.22,  -7.00, 369.10
2,1, 7,21, 0, 1, 0.00,10.00,SummerDesignDay
8,14.218136923962174
10,68424439.72636788
321,22510478.787906145
2,1, 7,21, 0, 1,10.00,20.00,SummerDesignDay
8,14.171982153293495
10,68255453.60824982
321,37366027.1130445
2,1, 7,21, 0, 1,20.00,30.00,SummerDesignDay
8,14.125744780286427
10,68085002.43332307
321,37327688.537855628
2,1, 7,21, 0, 1,30.00,40.00,SummerDesignDay
8,14.079436086331978
10,67907313.07162783
321,38362392.03058437
2,1, 7,21, 0, 1,40.00,50.00,SummerDesignDay
8,14.033050387896898
10,67736720.47371902
321,31840737.656647
2,1, 7,21, 0, 1,50.00,60.00,SummerDesignDay
8,13.986581233564835
10,67555457.63840434
321,36513867.010491829
2,1, 7,21, 0, 1, 0.00,60.00,SummerDesignDay
555,20.427409916243417
595,20.338539569567904
635,23.99848200006315
675,22.70667594987411
715,22.00703012238388
2,1, 7,21, 0, 2, 0.00,10.00,SummerDesignDay
8,13.95555882260429
10,63020209.72314039
321,46027408.8146928
2,1, 7,21, 0, 2,10.00,20.00,SummerDesignDay
8,13.924507755336454
10,62893835.98912108
321,43218845.288452569
2,1, 7,21, 0, 2,20.00,30.00,SummerDesignDay
8,13.893416042989206
10,62770665.27810814
321,40965818.82279208
2,1, 7,21, 0, 2,30.00,40.00,SummerDesignDay
8,13.862289589689029
10,62640024.71010721
321,48397967.960168529
2,1, 7,21, 0, 2,40.00,50.00,SummerDesignDay
8,13.831134407608739
10,62511719.45594898
321,39968606.94576614
2,1, 7,21, 0, 2,50.00,60.00,SummerDesignDay
8,13.799938415548118
10,62383008.934161949
321,47712261.849569518
2,1, 7,21, 0, 2, 0.00,60.00,SummerDesignDay
555,19.897057616049897
595,19.8134454883851
635,23.99849987153735
675,22.17133708119655
715,22.000000454384208
2,1, 7,21, 0, 3, 0.00,10.00,SummerDesignDay
8,13.776521671948676
10,57866732.39937774
321,20614021.463451256
2,1, 7,21, 0, 3,10.00,20.00,SummerDesignDay
8,13.753085235778466
10,57769307.88126311
321,20435261.264092465
2,1, 7,21, 0, 3,20.00,30.00,SummerDesignDay
8,13.729636002354969
10,57670066.53667993
321,20434081.798045804
2,1, 7,21, 0, 3,30.00,40.00,SummerDesignDay
8,13.706147375533054
10,57571203.30418506
321,20433025.96340916
2,1, 7,21, 0, 3,40.00,50.00,SummerDesignDay
8,13.682651961920304
10,57468934.11725904
321,20436645.19262835
2,1, 7,21, 0, 3,50.00,60.00,SummerDesignDay
8,13.659136670643687
10,57367646.8897
321,20436832.7077354
2,1, 7,21, 0, 3, 0.00,60.00,SummerDesignDay
555,19.53947831547914
595,19.461754061248099
635,23.9993312693165
675,21.805329574179934
715,20.054226592122075
2,1, 7,21, 0, 4, 0.00,10.00,SummerDesignDay
8,13.63560137410855
10,57272036.05162037
321,20436968.372553246
2,1, 7,21, 0, 4,10.00,20.00,SummerDesignDay
8,13.612040802606578
10,57162060.81093769
321,20437145.46522784
2,1, 7,21, 0, 4,20.00,30.00,SummerDesignDay
8,13.58846620506876
10,57063202.5139164
321,20437322.33693799
2,1, 7,21, 0, 4,30.00,40.00,SummerDesignDay
8,13.56487178447336
10,56858963.01015362
321,20437498.708166835
2,1, 7,21, 0, 4,40.00,50.00,SummerDesignDay
8,13.541257354069103
10,56858963.01015362
321,20437674.56271809
2,1, 7,21, 0, 4,50.00,60.00,SummerDesignDay
8,13.517617463812285
10,56858963.01015362
321,20437849.90240475
2,1, 7,21, 0, 4, 0.00,60.00,SummerDesignDay
555,19.152985440685517
595,19.083480608958639
635,24.00154249775295
675,21.44013275562388
715,18.647906810310724
2,1, 7,21, 0, 5, 0.00,10.00,SummerDesignDay
8,13.50185415824011
10,56858963.01015362
321,20438024.729092625
2,1, 7,21, 0, 5,10.00,20.00,SummerDesignDay
8,13.486076034032447
10,56858963.01015362
321,20438199.044642364
2,1, 7,21, 0, 5,20.00,30.00,SummerDesignDay
8,13.470289340350983
10,56858963.01015362
321,20438372.850906116
2,1, 7,21, 0, 5,30.00,40.00,SummerDesignDay
8,13.454493322631063
10,56858963.01015362
321,20438546.14972808
2,1, 7,21, 0, 5,40.00,50.00,SummerDesignDay
8,13.438688835118548
10,56858963.01015362
321,20438718.942944509
2,1, 7,21, 0, 5,50.00,60.00,SummerDesignDay
8,13.422888173889437
10,56858963.01015362
321,20438891.23238377
2,1, 7,21, 0, 5, 0.00,60.00,SummerDesignDay
555,18.854249313780117
595,18.790620306081825
635,23.90611770262738
675,21.154715307769786
715,18.254091301748475
2,1, 7,21, 0, 6, 0.00,10.00,SummerDesignDay
8,13.438688835118548
10,56858963.01015362
321,20439063.01986671
2,1, 7,21, 0, 6,10.00,20.00,SummerDesignDay
8,13.454493322631063
10,56858963.01015362
321,20439234.307205716
2,1, 7,21, 0, 6,20.00,30.00,SummerDesignDay
8,13.470289340350983
10,56858963.01015362
321,20439405.09620589
2,1, 7,21, 0, 6,30.00,40.00,SummerDesignDay
8,13.486076034032447
10,56858963.01015362
321,20439575.388664448
2,1, 7,21, 0, 6,40.00,50.00,SummerDesignDay
8,13.50185415824011
10,56858963.01015362
321,20439745.186370575
2,1, 7,21, 0, 6,50.00,60.00,SummerDesignDay
8,13.517617463812285
10,56858963.01015362
321,20439914.491106325
2,1, 7,21, 0, 6, 0.00,60.00,SummerDesignDay
555,18.73168008756132
595,18.6726032985756
635,23.82994425072329
675,21.08169903220545
715,18.14379626073483
2,1, 7,21, 0, 7, 0.00,10.00,SummerDesignDay
8,13.572736920571789
10,56858963.01015362
321,20440083.304645614
2,1, 7,21, 0, 7,10.00,20.00,SummerDesignDay
8,13.627748229152554
10,56858963.01015362
321,20440251.628755146
2,1, 7,21, 0, 7,20.00,30.00,SummerDesignDay
8,13.682651961920304
10,57067159.53605142
321,20440419.46519393
2,1, 7,21, 0, 7,30.00,40.00,SummerDesignDay
8,13.737448093244995
10,57527828.41613424
321,20440586.81571311
2,1, 7,21, 0, 7,40.00,50.00,SummerDesignDay
8,13.792137011831216
10,57618743.482323359
321,20440753.682057069
2,1, 7,21, 0, 7,50.00,60.00,SummerDesignDay
8,13.846719282840333
10,57858024.31456612
321,20440920.06596195
2,1, 7,21, 0, 7, 0.00,60.00,SummerDesignDay
555,18.953478769419847
595,18.897974479641645
635,23.97056095837623
675,21.423114762204237
715,18.44954644818584
2,1, 7,21, 0, 8, 0.00,10.00,SummerDesignDay
8,13.978831900527043
10,58332737.61514415
321,60675067.694166909
2,1, 7,21, 0, 8,10.00,20.00,SummerDesignDay
8,14.110321014287419
10,58804118.54859606
321,23651529.442601049
2,1, 7,21, 0, 8,20.00,30.00,SummerDesignDay
8,14.241191509616986
10,59273035.386309508
321,32093889.4501132
2,1, 7,21, 0, 8,30.00,40.00,SummerDesignDay
8,14.371447531304272
10,59713745.84040883
321,21146808.131723215
2,1, 7,21, 0, 8,40.00,50.00,SummerDesignDay
8,14.501093766564925
10,60139709.49183405
321,21154345.265071889
2,1, 7,21, 0, 8,50.00,60.00,SummerDesignDay
8,14.630134792273804
10,60548125.49818199
321,21161910.648485695
2,1, 7,21, 0, 8, 0.00,60.00,SummerDesignDay
555,20.162269694394014
595,20.154396090483507
635,23.998438842758785
675,22.412086491469294
715,19.385690307190207
2,1, 7,21, 0, 9, 0.00,10.00,SummerDesignDay
8,14.773641492809972
10,80999587.22779332
321,65059925.78980857
2,1, 7,21, 0, 9,10.00,20.00,SummerDesignDay
8,14.91640948124148
10,81456026.89756215
321,32826161.367080604
2,1, 7,21, 0, 9,20.00,30.00,SummerDesignDay
8,15.05843890714102
10,81919192.46712999
321,21488704.488179484
2,1, 7,21, 0, 9,30.00,40.00,SummerDesignDay
8,15.199735893563798
10,84868338.99311769
321,20485554.745720038
2,1, 7,21, 0, 9,40.00,50.00,SummerDesignDay
8,15.340306256439395
10,86125168.03435536
321,20486594.528802866
2,1, 7,21, 0, 9,50.00,60.00,SummerDesignDay
8,15.48015101768072
10,87468588.07960274
321,20487632.1762474
2,1, 7,21, 0, 9, 0.00,60.00,SummerDesignDay
555,22.485910890986025
595,22.69777644213056
635,23.99912166675117
675,23.77512485477921
715,21.046165488142028
2,1, 7,21, 0,10, 0.00,10.00,SummerDesignDay
8,15.60467292907716
10,113669615.9546905
321,33601904.43783225
2,1, 7,21, 0,10,10.00,20.00,SummerDesignDay
8,15.72862731650033
10,119711686.47668037
321,33823115.26800841
2,1, 7,21, 0,10,20.00,30.00,SummerDesignDay
8,15.852017409284228
10,121943497.95055969
321,32312341.9800944
2,1, 7,21, 0,10,30.00,40.00,SummerDesignDay
8,15.974848118364367
10,124815456.2077971
321,32232753.204085504
2,1, 7,21, 0,10,40.00,50.00,SummerDesignDay
8,16.097123145563505
10,128569652.81715964
321,32269438.338670687
2,1, 7,21, 0,10,50.00,60.00,SummerDesignDay
8,16.218846351168599
10,130492103.38706622
321,32226507.015515668
2,1, 7,21, 0,10, 0.00,60.00,SummerDesignDay
555,23.950665004504587
595,23.996481094578827
635,23.99881864565936
675,23.999130530326196
715,23.504800594374474
2,1, 7,21, 0,11, 0.00,10.00,SummerDesignDay
8,16.325793027093189
10,136531516.34239555
321,34945979.91773687
2,1, 7,21, 0,11,10.00,20.00,SummerDesignDay
8,16.432322158488288
10,138781806.03237967
321,35251969.9085748
2,1, 7,21, 0,11,20.00,30.00,SummerDesignDay
8,16.538424180249178
10,140744747.93399097
321,35263682.05292199
2,1, 7,21, 0,11,30.00,40.00,SummerDesignDay
8,16.644108396469087
10,142640965.36470513
321,35275426.283542457
2,1, 7,21, 0,11,40.00,50.00,SummerDesignDay
8,16.749376736593655
10,144462905.84170348
321,35287252.901098977
2,1, 7,21, 0,11,50.00,60.00,SummerDesignDay
8,16.854232613237156
10,146219680.11190699
321,34492952.41767514
2,1, 7,21, 0,11, 0.00,60.00,SummerDesignDay
555,23.99974109876095
595,23.99968584781327
635,23.998427998145585
675,23.99877206981422
715,23.999525824099718
2,1, 7,21, 0,12, 0.00,10.00,SummerDesignDay
8,16.92390823520069
10,150714671.01001746
321,21963934.865048317
2,1, 7,21, 0,12,10.00,20.00,SummerDesignDay
8,16.99340178950456
10,151773312.0674305
321,32842735.70808569
2,1, 7,21, 0,12,20.00,30.00,SummerDesignDay
8,17.06272006743463
10,152912492.93188066
321,32838534.807545697
2,1, 7,21, 0,12,30.00,40.00,SummerDesignDay
8,17.131853229172639
10,154048026.6272699
321,27950372.274588538
2,1, 7,21, 0,12,40.00,50.00,SummerDesignDay
8,17.200807172194087
10,155154663.3866215
321,26774755.337305119
2,1, 7,21, 0,12,50.00,60.00,SummerDesignDay
8,17.269582116758607
10,156255937.1129711
321,32840221.7349873
2,1, 7,21, 0,12, 0.00,60.00,SummerDesignDay
555,23.999739183241947
595,23.999674332894999
635,23.998545277403854
675,23.998820160669245
715,23.99938297533482
2,1, 7,21, 0,13, 0.00,10.00,SummerDesignDay
8,17.32447360221357
10,158406385.4542713
321,34051378.96373373
2,1, 7,21, 0,13,10.00,20.00,SummerDesignDay
8,17.379251291230806
10,159481718.37158246
321,34193509.16011623
2,1, 7,21, 0,13,20.00,30.00,SummerDesignDay
8,17.433921312061729
10,160468491.96068213
321,34195608.22518305
2,1, 7,21, 0,13,30.00,40.00,SummerDesignDay
8,17.488473222557489
10,161615268.75341553
321,34197697.779726717
2,1, 7,21, 0,13,40.00,50.00,SummerDesignDay
8,17.542913447755134
10,162759862.84384836
321,34199773.05415572
2,1, 7,21, 0,13,50.00,60.00,SummerDesignDay
8,17.59724609886134
10,163905455.19546703
321,34201832.7542403
2,1, 7,21, 0,13, 0.00,60.00,SummerDesignDay
555,23.999571335660453
595,23.9994596813321
635,23.99842399269407
675,23.998812189793545
715,23.9990414182645
2,1, 7,21, 0,14, 0.00,10.00,SummerDesignDay
8,17.6311450462694
10,164428247.35694976
321,35526977.32813221
2,1, 7,21, 0,14,10.00,20.00,SummerDesignDay
8,17.665000449016245
10,165192609.80097915
321,43035679.55524881
2,1, 7,21, 0,14,20.00,30.00,SummerDesignDay
8,17.698812743128934
10,165906136.96232958
321,37066005.96506992
2,1, 7,21, 0,14,30.00,40.00,SummerDesignDay
8,17.732582050940107
10,166620766.07725624
321,34690158.67054788
2,1, 7,21, 0,14,40.00,50.00,SummerDesignDay
8,17.766307345121004
10,167334044.7896075
321,34697456.44328481
2,1, 7,21, 0,14,50.00,60.00,SummerDesignDay
8,17.79999023167558
10,168045357.9239658
321,34704739.73405943
2,1, 7,21, 0,14, 0.00,60.00,SummerDesignDay
555,23.999362338493964
595,23.999183951689216
635,23.998283205086808
675,23.998734038641787
715,23.998826042270989
2,1, 7,21, 0,15, 0.00,10.00,SummerDesignDay
8,17.79999023167558
10,167442032.0099501
321,35880883.19606791
2,1, 7,21, 0,15,10.00,20.00,SummerDesignDay
8,17.79999023167558
10,167414989.7317124
321,43037588.719552699
2,1, 7,21, 0,15,20.00,30.00,SummerDesignDay
8,17.79999023167558
10,167416367.16951684
321,36761273.59049171
2,1, 7,21, 0,15,30.00,40.00,SummerDesignDay
8,17.79999023167558
10,167415190.73033438
321,34690417.1232558
2,1, 7,21, 0,15,40.00,50.00,SummerDesignDay
8,17.79999023167558
10,167412145.45088656
321,34697723.83136607
2,1, 7,21, 0,15,50.00,60.00,SummerDesignDay
8,17.79999023167558
10,167409323.4240813
321,34705003.89903628
2,1, 7,21, 0,15, 0.00,60.00,SummerDesignDay
555,23.999334901315846
595,23.999146409762547
635,23.998258371705075
675,23.998732196783164
715,23.999065940710879
2,1, 7,21, 0,16, 0.00,10.00,SummerDesignDay
8,17.759562446305357
10,165940958.60802
321,33808082.179203588
2,1, 7,21, 0,16,10.00,20.00,SummerDesignDay
8,17.71907809634183
10,164934849.83994887
321,33709124.02617829
2,1, 7,21, 0,16,20.00,30.00,SummerDesignDay
8,17.67853788661001
10,164080888.06004665
321,33707303.271109778
2,1, 7,21, 0,16,30.00,40.00,SummerDesignDay
8,17.63791796367351
10,163224895.0158091
321,33705582.193514037
2,1, 7,21, 0,16,40.00,50.00,SummerDesignDay
8,17.59724609886134
10,162372050.96811388
321,33703863.29603995
2,1, 7,21, 0,16,50.00,60.00,SummerDesignDay
8,17.55650676726033
10,161517959.87231959
321,33702142.34653253
2,1, 7,21, 0,16, 0.00,60.00,SummerDesignDay
555,23.99933225253103
595,23.999142576804617
635,23.998255546670788
675,23.998732784499095
715,23.99945751475902
2,1, 7,21, 0,17, 0.00,10.00,SummerDesignDay
8,17.50209486331892
10,160599220.97803808
321,32887632.03919051
2,1, 7,21, 0,17,10.00,20.00,SummerDesignDay
8,17.447570789624618
10,159364610.8922483
321,21862430.122390856
2,1, 7,21, 0,17,20.00,30.00,SummerDesignDay
8,17.392929544208135
10,158323883.06372229
321,32804890.15542904
2,1, 7,21, 0,17,30.00,40.00,SummerDesignDay
8,17.33818013976614
10,157481087.34045065
321,32800655.02946086
2,1, 7,21, 0,17,40.00,50.00,SummerDesignDay
8,17.283317298559309
10,156636099.55081899
321,25595613.13179264
2,1, 7,21, 0,17,50.00,60.00,SummerDesignDay
8,17.22833552437677
10,155784348.8673299
321,29069260.904531588
2,1, 7,21, 0,17, 0.00,60.00,SummerDesignDay
555,23.999341447515055
595,23.999138248026389
635,23.99825346819137
675,23.998815005617144
715,23.99970563492758
2,1, 7,21, 0,18, 0.00,10.00,SummerDesignDay
8,17.159453019160176
10,154702065.93707
321,32428023.55018213
2,1, 7,21, 0,18,10.00,20.00,SummerDesignDay
8,17.090391773337136
10,153563568.64257945
321,21589519.18188719
2,1, 7,21, 0,18,20.00,30.00,SummerDesignDay
8,17.021151077964786
10,152467161.8085276
321,32388932.90638172
2,1, 7,21, 0,18,30.00,40.00,SummerDesignDay
8,16.951729380464653
10,151393157.0986564
321,29290513.73747359
2,1, 7,21, 0,18,40.00,50.00,SummerDesignDay
8,16.882126503829249
10,150313199.6022028
321,24679580.54987571
2,1, 7,21, 0,18,50.00,60.00,SummerDesignDay
8,16.812341807494034
10,149225982.97491849
321,32386952.66329478
2,1, 7,21, 0,18, 0.00,60.00,SummerDesignDay
555,23.999318972498913
595,23.999130188536385
635,23.998145860732309
675,23.99869866720167
715,23.999683051478134
2,1, 7,21, 0,19, 0.00,10.00,SummerDesignDay
8,16.707321072823203
10,147742019.0428444
321,21733900.562336964
2,1, 7,21, 0,19,10.00,20.00,SummerDesignDay
8,16.601881826644556
10,146094217.44320456
321,32633038.700646227
2,1, 7,21, 0,19,20.00,30.00,SummerDesignDay
8,16.496030555252849
10,144363363.60313035
321,32629313.523065259
2,1, 7,21, 0,19,30.00,40.00,SummerDesignDay
8,16.389760181474104
10,142591320.62029199
321,21748762.38136701
2,1, 7,21, 0,19,40.00,50.00,SummerDesignDay
8,16.283067654262039
10,140783272.95244593
321,32632564.568973807
2,1, 7,21, 0,19,50.00,60.00,SummerDesignDay
8,16.17595057957811
10,138934748.02245695
321,32629253.92903184
2,1, 7,21, 0,19, 0.00,60.00,SummerDesignDay
555,23.99946290318211
595,23.999268776959864
635,23.998034003602546
675,23.99868211336491
715,23.99938199906224
2,1, 7,21, 0,20, 0.00,10.00,SummerDesignDay
8,16.097123145563505
10,121176567.35674222
321,21896983.367984076
2,1, 7,21, 0,20,10.00,20.00,SummerDesignDay
8,16.018070242471564
10,119449536.17664334
321,32881332.633552888
2,1, 7,21, 0,20,20.00,30.00,SummerDesignDay
8,15.938779752340516
10,117912095.36207026
321,32876621.638865115
2,1, 7,21, 0,20,30.00,40.00,SummerDesignDay
8,15.85926152575189
10,116327267.6774802
321,30545119.169698545
2,1, 7,21, 0,20,40.00,50.00,SummerDesignDay
8,15.779503718563929
10,114732396.31757228
321,24241048.100348269
2,1, 7,21, 0,20,50.00,60.00,SummerDesignDay
8,15.699515709672767
10,113129661.98741664
321,32879172.589618368
2,1, 7,21, 0,20, 0.00,60.00,SummerDesignDay
555,23.999794110587158
595,23.999730010915216
635,23.99809694079893
675,23.998725364030937
715,23.998958530573395
2,1, 7,21, 0,21, 0.00,10.00,SummerDesignDay
8,15.63389147320404
10,106178937.57842611
321,34167965.154441859
2,1, 7,21, 0,21,10.00,20.00,SummerDesignDay
8,15.56810827419793
10,104909729.01706584
321,34320696.19132717
2,1, 7,21, 0,21,20.00,30.00,SummerDesignDay
8,15.502170882753524
10,103517781.34082744
321,34323972.21714676
2,1, 7,21, 0,21,30.00,40.00,SummerDesignDay
8,15.436068032613852
10,102096482.98738301
321,34327195.2114337
2,1, 7,21, 0,21,40.00,50.00,SummerDesignDay
8,15.369804371206009
10,100659603.824331
321,34524927.10227697
2,1, 7,21, 0,21,50.00,60.00,SummerDesignDay
8,15.303384603594449
10,99209359.36838125
321,38604342.152655
2,1, 7,21, 0,21, 0.00,60.00,SummerDesignDay
555,23.999915341651957
595,23.99987188194589
635,23.998199880944239
675,23.99876242834327
715,23.998655609494447
2,1, 7,21, 0,22, 0.00,10.00,SummerDesignDay
8,15.236797685071274
10,76708173.38094017
321,34731702.954049568
2,1, 7,21, 0,22,10.00,20.00,SummerDesignDay
8,15.170047891787942
10,75686049.51259308
321,34264373.75545899
2,1, 7,21, 0,22,20.00,30.00,SummerDesignDay
8,15.103134826860483
10,74638256.10350827
321,34290784.62302199
2,1, 7,21, 0,22,30.00,40.00,SummerDesignDay
8,15.036063385178485
10,73568703.50262758
321,34291726.928154889
2,1, 7,21, 0,22,40.00,50.00,SummerDesignDay
8,14.968821767219835
10,72455967.16206177
321,34321027.93925259
2,1, 7,21, 0,22,50.00,60.00,SummerDesignDay
8,14.90141525878635
10,71752674.99599591
321,34301790.72660849
2,1, 7,21, 0,22, 0.00,60.00,SummerDesignDay
555,22.98644372391591
595,22.955016726322126
635,23.998679486568436
675,23.99908570457951
715,23.99384846098701
2,1, 7,21, 0,23, 0.00,10.00,SummerDesignDay
8,14.848873673278373
10,71194724.54635617
321,39070803.212803538
2,1, 7,21, 0,23,10.00,20.00,SummerDesignDay
8,14.796237168136719
10,70377880.28185226
321,34461028.180268328
2,1, 7,21, 0,23,20.00,30.00,SummerDesignDay
8,14.743494321455645
10,70204706.14798253
321,34465794.25864963
2,1, 7,21, 0,23,30.00,40.00,SummerDesignDay
8,14.690649975253665
10,70031348.6459643
321,34470752.06572648
2,1, 7,21, 0,23,40.00,50.00,SummerDesignDay
8,14.637704281233117
10,69857408.30930642
321,34475666.004462409
2,1, 7,21, 0,23,50.00,60.00,SummerDesignDay
8,14.584656914839757
10,69682211.43208023
321,34480523.64252133
2,1, 7,21, 0,23, 0.00,60.00,SummerDesignDay
555,21.80895134940044
595,21.735823823959384
635,23.9983785504578
675,23.932276724724557
715,23.40917291042179
2,1, 7,21, 0,24, 0.00,10.00,SummerDesignDay
8,14.531507212058875
10,69505217.77917671
321,34485325.83300933
2,1, 7,21, 0,24,10.00,20.00,SummerDesignDay
8,14.47825496413355
10,69326127.53783402
321,38459873.22028577
2,1, 7,21, 0,24,20.00,30.00,SummerDesignDay
8,14.4249000133173
10,69144857.45243311
321,40503026.31140395
2,1, 7,21, 0,24,30.00,40.00,SummerDesignDay
8,14.371447531304272
10,68961498.13115639
321,35959724.388792019
2,1, 7,21, 0,24,40.00,50.00,SummerDesignDay
8,14.31788619902223
10,68775782.57655047
321,34463884.517446007
2,1, 7,21, 0,24,50.00,60.00,SummerDesignDay
8,14.264220970176066
10,68587098.57064665
321,34468832.44253498
2,1, 7,21, 0,24, 0.00,60.00,SummerDesignDay
555,21.074203980382707
595,20.98613621277949
635,23.9984348761586
675,23.36320680853431
715,22.506996005247065
3,1, 7,21, 0,SummerDesignDay
556,51.59416255699995,44.725660671010768,10,60,62.50765431697465, 6,20
596,51.56437726701222,44.19555603994084,10,60,62.74313060665359, 6,20
636,47.8318456625386,45.805880375530467,22,25,49.724560454843658, 6,20
676,50.21743220626906,46.804685841119958,20,40,57.410776779612607, 6,10
716,53.00626531241169,46.60462560403338,18,60,65.09256533679718, 6,20
4,1, 7
7,22.2505,16.5,21, 5,60,28.9,21,14,60
1,FORT MCMURRAY AP ANN HTG 99.6% CONDNS DB,  56.65,-111.22,  -7.00, 369.10
2,1, 1,21, 0, 1, 0.00,10.00,WinterDesignDay
8,-36.2
10,65683449.950726378
321,1410854615.0522326
2,1, 1,21, 0, 1,10.00,20.00,WinterDesignDay
8,-36.2
10,65678903.1735495
321,1411567278.3936568
2,1, 1,21, 0, 1,20.00,30.00,WinterDesignDay
8,-36.2
10,65678902.10349868
321,1411618465.8384674
2,1, 1,21, 0, 1,30.00,40.00,WinterDesignDay
8,-36.2
10,65683449.950726378
321,1411712244.2618826
2,1, 1,21, 0, 1,40.00,50.00,WinterDesignDay
8,-36.2
10,65678900.00398217
321,1411721262.798469
2,1, 1,21, 0, 1,50.00,60.00,WinterDesignDay
8,-36.2
10,65678899.46716166
321,1411763579.0799347
2,1, 1,21, 0, 1, 0.00,60.00,WinterDesignDay
555,17.99999490362124
595,17.999995565261455
635,21.99849190118334
675,21.998838525795376
715,22.000000902940653
2,1, 1,21, 0, 2, 0.00,10.00,WinterDesignDay
8,-36.2
10,61268930.76088427
321,1369174369.7485007
2,1, 1,21, 0, 2,10.00,20.00,WinterDesignDay
8,-36.2
10,61268929.950346689
321,1369684592.5584627
2,1, 1,21, 0, 2,20.00,30.00,WinterDesignDay
8,-36.2
10,61268929.76766144
321,1369981003.6203933
2,1, 1,21, 0, 2,30.00,40.00,WinterDesignDay
8,-36.2
10,61268929.47378189
321,1370302673.243119
2,1, 1,21, 0, 2,40.00,50.00,WinterDesignDay
8,-36.2
10,61268929.34122858
321,1370578373.7166644
2,1, 1,21, 0, 2,50.00,60.00,WinterDesignDay
8,-36.2
10,61268929.20876727
321,1370835756.2783013
2,1, 1,21, 0, 2, 0.00,60.00,WinterDesignDay
555,17.999997492063625
595,17.999997747718198
635,21.296199624267819
675,18.991426828705813
715,22.00000015081289
2,1, 1,21, 0, 3, 0.00,10.00,WinterDesignDay
8,-36.2
10,56858963.01015362
321,1316126655.4233568
2,1, 1,21, 0, 3,10.00,20.00,WinterDesignDay
8,-36.2
10,56859616.9910919
321,1333846355.1439965
2,1, 1,21, 0, 3,20.00,30.00,WinterDesignDay
8,-36.2
10,56858963.01015362
321,1352932765.328422
2,1, 1,21, 0, 3,30.00,40.00,WinterDesignDay
8,-36.2
10,56858966.35552588
321,1330830552.9558035
2,1, 1,21, 0, 3,40.00,50.00,WinterDesignDay
8,-36.2
10,56858963.890359979
321,1348724438.4451986
2,1, 1,21, 0, 3,50.00,60.00,WinterDesignDay
8,-36.2
10,56858963.01015362
321,1338971490.5382019
2,1, 1,21, 0, 3, 0.00,60.00,WinterDesignDay
555,17.999997231601186
595,17.99999735757223
635,20.829812496952149
675,18.014045634279495
715,18.33395426812943
2,1, 1,21, 0, 4, 0.00,10.00,WinterDesignDay
8,-36.2
10,56858963.01015362
321,1339482755.2696295
2,1, 1,21, 0, 4,10.00,20.00,WinterDesignDay
8,-36.2
10,56858963.01015362
321,1349453913.4214383
2,1, 1,21, 0, 4,20.00,30.00,WinterDesignDay
8,-36.2
10,56858963.01015362
321,1341042296.9938737
2,1, 1,21, 0, 4,30.00,40.00,WinterDesignDay
8,-36.2
10,56858963.01015362
321,1340375245.9831029
2,1, 1,21, 0, 4,40.00,50.00,WinterDesignDay
8,-36.2
10,56858963.01015362
321,1341839279.457454
2,1, 1,21, 0, 4,50.00,60.00,WinterDesignDay
8,-36.2
10,56858963.01015362
321,1349915697.786204
2,1, 1,21, 0, 4, 0.00,60.00,WinterDesignDay
555,17.99999642076888
595,17.99999651471443
635,20.704845643735518
675,17.99869230391238
715,17.999985585528966
2,1, 1,21, 0, 5, 0.00,10.00,WinterDesignDay
8,-36.2
10,56858963.01015362
321,1340796519.2128204
2,1, 1,21, 0, 5,10.00,20.00,WinterDesignDay
8,-36.2
10,56858963.01015362
321,1340898250.1790512
2,1, 1,21, 0, 5,20.00,30.00,WinterDesignDay
8,-36.2
10,56858963.01015362
321,1351452630.1059833
2,1, 1,21, 0, 5,30.00,40.00,WinterDesignDay
8,-36.2
10,56858963.01015362
321,1341003981.4973529
2,1, 1,21, 0, 5,40.00,50.00,WinterDesignDay
8,-36.2
10,56858963.01015362
321,1341058234.6983495
2,1, 1,21, 0, 5,50.00,60.00,WinterDesignDay
8,-36.2
10,56858963.01015362
321,1345880903.9755605
2,1, 1,21, 0, 5, 0.00,60.00,WinterDesignDay
555,17.99999655061982
595,17.999996617934575
635,20.675291375438954
675,17.998699382880319
715,17.999989609638424
2,1, 1,21, 0, 6, 0.00,10.00,WinterDesignDay
8,-36.2
10,56858963.01015362
321,1346853105.2984439
2,1, 1,21, 0, 6,10.00,20.00,WinterDesignDay
8,-36.2
10,56858963.01015362
321,1341157604.2315675
2,1, 1,21, 0, 6,20.00,30.00,WinterDesignDay
8,-36.2
10,56858963.01015362
321,1341196594.2456275
2,1, 1,21, 0, 6,30.00,40.00,WinterDesignDay
8,-36.2
10,56858963.01015362
321,1351703495.7502647
2,1, 1,21, 0, 6,40.00,50.00,WinterDesignDay
8,-36.2
10,56858963.01015362
321,1341213321.49085
2,1, 1,21, 0, 6,50.00,60.00,WinterDesignDay
8,-36.2
10,56858963.01015362
321,1341231849.9056817
2,1, 1,21, 0, 6, 0.00,60.00,WinterDesignDay
555,17.999996588157989
595,17.99999664908428
635,20.66579370985908
675,17.99870126217891
715,17.999989990082395
2,1, 1,21, 0, 7, 0.00,10.00,WinterDesignDay
8,-36.2
10,56858963.01015362
321,1349478015.904425
2,1, 1,21, 0, 7,10.00,20.00,WinterDesignDay
8,-36.2
10,56858963.01015362
321,1343505376.1320983
2,1, 1,21, 0, 7,20.00,30.00,WinterDesignDay
8,-36.2
10,56858963.01015362
321,1341253415.1549965
2,1, 1,21, 0, 7,30.00,40.00,WinterDesignDay
8,-36.2
10,56858963.01015362
321,1341277672.589576
2,1, 1,21, 0, 7,40.00,50.00,WinterDesignDay
8,-36.2
10,56858963.01015362
321,1351767469.0524193
2,1, 1,21, 0, 7,50.00,60.00,WinterDesignDay
8,-36.2
10,56858963.01015362
321,1341272393.5259357
2,1, 1,21, 0, 7, 0.00,60.00,WinterDesignDay
555,17.9999965997615
595,17.99999665901339
635,20.662369527606704
675,17.998701878046867
715,17.999990068492108
2,1, 1,21, 0, 8, 0.00,10.00,WinterDesignDay
8,-36.2
10,56859723.0673048
321,1470166262.2294234
2,1, 1,21, 0, 8,10.00,20.00,WinterDesignDay
8,-36.2
10,56858963.01015362
321,1330132444.2279096
2,1, 1,21, 0, 8,20.00,30.00,WinterDesignDay
8,-36.2
10,56858963.01015362
321,1403472646.5844694
2,1, 1,21, 0, 8,30.00,40.00,WinterDesignDay
8,-36.2
10,56858963.01015362
321,1387467110.9924739
2,1, 1,21, 0, 8,40.00,50.00,WinterDesignDay
8,-36.2
10,56858963.01015362
321,1388521651.090158
2,1, 1,21, 0, 8,50.00,60.00,WinterDesignDay
8,-36.2
10,56858963.01015362
321,1391888643.490068
2,1, 1,21, 0, 8, 0.00,60.00,WinterDesignDay
555,19.973701878982543
595,19.973573848772756
635,20.682758344474718
675,20.03216708143174
715,17.999991181618964
2,1, 1,21, 0, 9, 0.00,10.00,WinterDesignDay
8,-36.2
10,76873306.69387929
321,1549354906.5193322
2,1, 1,21, 0, 9,10.00,20.00,WinterDesignDay
8,-36.2
10,76872548.26433298
321,1341954016.7163506
2,1, 1,21, 0, 9,20.00,30.00,WinterDesignDay
8,-36.2
10,76872546.44718378
321,1460944928.8441365
2,1, 1,21, 0, 9,30.00,40.00,WinterDesignDay
8,-36.2
10,76872546.44718378
321,1434635251.6508747
2,1, 1,21, 0, 9,40.00,50.00,WinterDesignDay
8,-36.2
10,76872546.44718378
321,1427787164.9432588
2,1, 1,21, 0, 9,50.00,60.00,WinterDesignDay
8,-36.2
10,76872546.44718378
321,1437298983.0841416
2,1, 1,21, 0, 9, 0.00,60.00,WinterDesignDay
555,21.973105203174958
595,21.975366648145344
635,22.04158879429571
675,21.992372015879274
715,19.97714166008242
2,1, 1,21, 0,10, 0.00,10.00,WinterDesignDay
8,-36.2
10,99073123.29500821
321,1456294021.85889
2,1, 1,21, 0,10,10.00,20.00,WinterDesignDay
8,-36.2
10,99072365.37478471
321,1409935292.3186644
2,1, 1,21, 0,10,20.00,30.00,WinterDesignDay
8,-36.2
10,99072363.6663624
321,1444103443.1902633
2,1, 1,21, 0,10,30.00,40.00,WinterDesignDay
8,-36.2
10,99076922.03295046
321,1427788218.767193
2,1, 1,21, 0,10,40.00,50.00,WinterDesignDay
8,-36.2
10,99072368.15218953
321,1425644439.6204344
2,1, 1,21, 0,10,50.00,60.00,WinterDesignDay
8,-36.2
10,99072369.07380775
321,1434019470.43861
2,1, 1,21, 0,10, 0.00,60.00,WinterDesignDay
555,21.999926963667617
595,21.999998799868736
635,21.998659818114694
675,21.999027677085896
715,21.975375077890644
2,1, 1,21, 0,11, 0.00,10.00,WinterDesignDay
8,-36.2
10,101277353.62349335
321,1420894453.20222
2,1, 1,21, 0,11,10.00,20.00,WinterDesignDay
8,-36.2
10,101281903.6823669
321,1417148085.7679473
2,1, 1,21, 0,11,20.00,30.00,WinterDesignDay
8,-36.2
10,101277356.45684937
321,1428579638.899519
2,1, 1,21, 0,11,30.00,40.00,WinterDesignDay
8,-36.2
10,101281903.6823669
321,1416232595.7092405
2,1, 1,21, 0,11,40.00,50.00,WinterDesignDay
8,-36.2
10,101277358.63981429
321,1418585314.5545488
2,1, 1,21, 0,11,50.00,60.00,WinterDesignDay
8,-36.2
10,101281903.6823669
321,1424901322.7393807
2,1, 1,21, 0,11, 0.00,60.00,WinterDesignDay
555,21.999793666459469
595,22.000000758410264
635,21.998390927125845
675,21.998800855763446