Program Version,EnergyPlus, Version 8.9.0-eba93e8e1b, YMD=2019.03.20 17:57
1,5,Environment Title[],Latitude[deg],Longitude[deg],Time Zone[],Elevation[m]
2,8,Day of Simulation[],Month[],Day of Month[],DST Indicator[1=yes 0=no],Hour[],StartMinute[],EndMinute[],DayType
3,5,Cumulative Day of Simulation[],Month[],Day of Month[],DST Indicator[1=yes 0=no],DayType  ! When Daily Report Variables Requested
4,2,Cumulative Days of Simulation[],Month[]  ! When Monthly Report Variables Requested
5,1,Cumulative Days of Simulation[] ! When Run Period Report Variables Requested
6,1,Calendar Year of Simulation[] ! When Annual Report Variables Requested
7,9,Environment,Site Outdoor Air Drybulb Temperature [C] !Monthly [Value,Min,Day,Hour,Minute,Max,Day,Hour,Minute]
8,1,Environment,Site Outdoor Air Wetbulb Temperature [C] !TimeStep
745,1,HOSPITAL CORR. < 2.4M-SCH-E-SPACE FUNCTION ZN,Zone Air Temperature [C] !Hourly
746,7,HOSPITAL CORR. < 2.4M-SCH-E-SPACE FUNCTION ZN,Zone Air Relative Humidity [%] !Daily [Value,Min,Hour,Minute,Max,Hour,Minute]
785,1,HOSPITAL CORR. < 2.4M-SCH-F-SPACE FUNCTION ZN,Zone Air Temperature [C] !Hourly
786,7,HOSPITAL CORR. < 2.4M-SCH-F-SPACE FUNCTION ZN,Zone Air Relative Humidity [%] !Daily [Value,Min,Hour,Minute,Max,Hour,Minute]
825,1,HOSPITAL CORR. < 2.4M-SCH-G-SPACE FUNCTION ZN,Zone Air Temperature [C] !Hourly
826,7,HOSPITAL CORR. < 2.4M-SCH-G-SPACE FUNCTION ZN,Zone Air Relative Humidity [%] !Daily [Value,Min,Hour,Minute,Max,Hour,Minute]
865,1,HOSPITAL CORR. < 2.4M-SCH-H-SPACE FUNCTION ZN,Zone Air Temperature [C] !Hourly
866,7,HOSPITAL CORR. < 2.4M-SCH-H-SPACE FUNCTION ZN,Zone Air Relative Humidity [%] !Daily [Value,Min,Hour,Minute,Max,Hour,Minute]
905,1,HOSPITAL CORR. < 2.4M-SCH-I-SPACE FUNCTION ZN,Zone Air Temperature [C] !Hourly
906,7,HOSPITAL CORR. < 2.4M-SCH-I-SPACE FUNCTION ZN,Zone Air Relative Humidity [%] !Daily [Value,Min,Hour,Minute,Max,Hour,Minute]
945,1,HOSPITAL CORR. >= 2.4M-SCH-A-SPACE FUNCTION ZN,Zone Air Temperature [C] !Hourly
946,7,HOSPITAL CORR. >= 2.4M-SCH-A-SPACE FUNCTION ZN,Zone Air Relative Humidity [%] !Daily [Value,Min,Hour,Minute,Max,Hour,Minute]
985,1,HOSPITAL CORR. >= 2.4M-SCH-B-SPACE FUNCTION ZN,Zone Air Temperature [C] !Hourly
986,7,HOSPITAL CORR. >= 2.4M-SCH-B-SPACE FUNCTION ZN,Zone Air Relative Humidity [%] !Daily [Value,Min,Hour,Minute,Max,Hour,Minute]
1025,1,HOSPITAL CORR. >= 2.4M-SCH-C-SPACE FUNCTION ZN,Zone Air Temperature [C] !Hourly
1026,7,HOSPITAL CORR. >= 2.4M-SCH-C-SPACE FUNCTION ZN,Zone Air Relative Humidity [%] !Daily [Value,Min,Hour,Minute,Max,Hour,Minute]
1065,1,HOSPITAL CORR. >= 2.4M-SCH-D-SPACE FUNCTION ZN,Zone Air Temperature [C] !Hourly
1066,7,HOSPITAL CORR. >= 2.4M-SCH-D-SPACE FUNCTION ZN,Zone Air Relative Humidity [%] !Daily [Value,Min,Hour,Minute,Max,Hour,Minute]
1105,1,HOSPITAL CORR. >= 2.4M-SCH-E-SPACE FUNCTION ZN,Zone Air Temperature [C] !Hourly
1106,7,HOSPITAL CORR. >= 2.4M-SCH-E-SPACE FUNCTION ZN,Zone Air Relative Humidity [%] !Daily [Value,Min,Hour,Minute,Max,Hour,Minute]
1145,1,HOSPITAL CORR. >= 2.4M-SCH-F-SPACE FUNCTION ZN,Zone Air Temperature [C] !Hourly
1146,7,HOSPITAL CORR. >= 2.4M-SCH-F-SPACE FUNCTION ZN,Zone Air Relative Humidity [%] !Daily [Value,Min,Hour,Minute,Max,Hour,Minute]
1185,1,HOSPITAL CORR. >= 2.4M-SCH-G-SPACE FUNCTION ZN,Zone Air Temperature [C] !Hourly
1186,7,HOSPITAL CORR. >= 2.4M-SCH-G-SPACE FUNCTION ZN,Zone Air Relative Humidity [%] !Daily [Value,Min,Hour,Minute,Max,Hour,Minute]
1225,1,HOSPITAL CORR. >= 2.4M-SCH-H-SPACE FUNCTION ZN,Zone Air Temperature [C] !Hourly
1226,7,HOSPITAL CORR. >= 2.4M-SCH-H-SPACE FUNCTION ZN,Zone Air Relative Humidity [%] !Daily [Value,Min,Hour,Minute,Max,Hour,Minute]
1265,1,HOSPITAL CORR. >= 2.4M-SCH-I-SPACE FUNCTION ZN,Zone Air Temperature [C] !Hourly
1266,7,HOSPITAL CORR. >= 2.4M-SCH-I-SPACE FUNCTION ZN,Zone Air Relative Humidity [%] !Daily [Value,Min,Hour,Minute,Max,Hour,Minute]
1305,1,HOTEL/MOTEL - DINING-SPACE FUNCTION ZN,Zone Air Temperature [C] !Hourly
1306,7,HOTEL/MOTEL - DINING-SPACE FUNCTION ZN,Zone Air Relative Humidity [%] !Daily [Value,Min,Hour,Minute,Max,Hour,Minute]
1345,1,HOTEL/MOTEL - LOBBY-SPACE FUNCTION ZN,Zone Air Temperature [C] !Hourly
1346,7,HOTEL/MOTEL - LOBBY-SPACE FUNCTION ZN,Zone Air Relative Humidity [%] !Daily [Value,Min,Hour,Minute,Max,Hour,Minute]
1385,1,HOTEL/MOTEL - ROOMS-SPACE FUNCTION ZN,Zone Air Temperature [C] !Hourly
1386,7,HOTEL/MOTEL - ROOMS-SPACE FUNCTION ZN,Zone Air Relative Humidity [%] !Daily [Value,Min,Hour,Minute,Max,Hour,Minute]
1425,1,HWAY LODGING - DINING-SPACE FUNCTION ZN,Zone Air Temperature [C] !Hourly
1426,7,HWAY LODGING - DINING-SPACE FUNCTION ZN,Zone Air Relative Humidity [%] !Daily [Value,Min,Hour,Minute,Max,Hour,Minute]
1465,1,HWAY LODGING - ROOMS-SPACE FUNCTION ZN,Zone Air Temperature [C] !Hourly
1466,7,HWAY LODGING - ROOMS-SPACE FUNCTION ZN,Zone Air Relative Humidity [%] !Daily [Value,Min,Hour,Minute,Max,Hour,Minute]
1505,1,LAB - CLASSROOMS-SPACE FUNCTION ZN,Zone Air Temperature [C] !Hourly
1506,7,LAB - CLASSROOMS-SPACE FUNCTION ZN,Zone Air Relative Humidity [%] !Daily [Value,Min,Hour,Minute,Max,Hour,Minute]
10,1,Electricity:Facility [J] !TimeStep
1656,1,DistrictCooling:Facility [J] !TimeStep
1619,1,DistrictHeating:Facility [J] !TimeStep
End of Data Dictionary
1,FORT MCMURRAY AP ANN CLG .4% CONDNS DB=>MWB,  56.65,-111.22,  -7.00, 369.10
2,1, 7,21, 0, 1, 0.00,10.00,SummerDesignDay
8,14.218136923962174
10,108160349.8282323
1619,0.0
1656,54204922.85162291
2,1, 7,21, 0, 1,10.00,20.00,SummerDesignDay
8,14.171982153293495
10,108160349.8282323
1619,0.0
1656,51891244.41413325
2,1, 7,21, 0, 1,20.00,30.00,SummerDesignDay
8,14.125744780286427
10,108160349.8282323
1619,0.0
1656,50074913.45059368
2,1, 7,21, 0, 1,30.00,40.00,SummerDesignDay
8,14.079436086331978
10,108160349.8282323
1619,0.0
1656,48223070.70319633
2,1, 7,21, 0, 1,40.00,50.00,SummerDesignDay
8,14.033050387896898
10,108160349.8282323
1619,0.0
1656,46390829.47181943
2,1, 7,21, 0, 1,50.00,60.00,SummerDesignDay
8,13.986581233564835
10,108160349.8282323
1619,0.0
1656,44576134.83928342
2,1, 7,21, 0, 1, 0.00,60.00,SummerDesignDay
745,22.85966495576692
785,23.906822055785143
825,23.68119852574702
865,24.000000000000015
905,24.50711070325868
945,24.37949543019253
985,24.00000000000004
1025,23.510338046443505
1065,23.28123911502075
1105,22.668324582186029
1145,23.81564512460575
1185,23.65891111742494
1225,24.00000000000001
1265,24.54711926747831
1305,22.459407769140268
1345,23.99999999999999
1385,24.00000000000001
1425,22.52328568668231
1465,24.000000000000019
1505,22.526638074096188
2,1, 7,21, 0, 2, 0.00,10.00,SummerDesignDay
8,13.95555882260429
10,69550671.16022259
1619,0.0
1656,30577759.57857309
2,1, 7,21, 0, 2,10.00,20.00,SummerDesignDay
8,13.924507755336454
10,69550671.16022259
1619,3863067.939873683
1656,29225990.917182678
2,1, 7,21, 0, 2,20.00,30.00,SummerDesignDay
8,13.893416042989206
10,69550671.16022259
1619,6222532.539699693
1656,27934685.985158594
2,1, 7,21, 0, 2,30.00,40.00,SummerDesignDay
8,13.862289589689029
10,69550671.16022259
1619,5365926.405408613
1656,26647396.67283645
2,1, 7,21, 0, 2,40.00,50.00,SummerDesignDay
8,13.831134407608739
10,69550671.16022259
1619,7011039.785350712
1656,25369604.985614066
2,1, 7,21, 0, 2,50.00,60.00,SummerDesignDay
8,13.799938415548118
10,69550671.16022259
1619,8137935.531807153
1656,24101738.971439475
2,1, 7,21, 0, 2, 0.00,60.00,SummerDesignDay
745,22.519718694411315
785,23.47383535619521
825,22.87248086393048
865,24.00000000000001
905,24.12408762527784
945,24.130137338928646
985,24.83845409975812
1025,23.30338075242288
1065,23.052347910143355
1105,22.29941841710235
1145,23.514619818211984
1185,23.16937539731789
1225,24.000000000000026
1265,24.2540979773994
1305,22.02068956327074
1345,24.00000000000003
1385,24.00000000000001
1425,22.031721333795365
1465,24.00000000000001
1505,22.1909827017376
2,1, 7,21, 0, 3, 0.00,10.00,SummerDesignDay
8,13.776521671948676
10,56095783.13825905
1619,0.0
1656,23018522.01507127
2,1, 7,21, 0, 3,10.00,20.00,SummerDesignDay
8,13.753085235778466
10,56095783.13825905
1619,0.0
1656,21930387.334060506
2,1, 7,21, 0, 3,20.00,30.00,SummerDesignDay
8,13.729636002354969
10,56095783.13825905
1619,0.0
1656,20836777.13158048
2,1, 7,21, 0, 3,30.00,40.00,SummerDesignDay
8,13.706147375533054
10,56095783.13825905
1619,0.0
1656,19740107.60990022
2,1, 7,21, 0, 3,40.00,50.00,SummerDesignDay
8,13.682651961920304
10,56095783.13825905
1619,0.0
1656,18636651.86384668
2,1, 7,21, 0, 3,50.00,60.00,SummerDesignDay
8,13.659136670643687
10,56095783.13825905
1619,0.0
1656,17531170.76187228
2,1, 7,21, 0, 3, 0.00,60.00,SummerDesignDay
745,22.22804485814498
785,23.120503248408978
825,22.340766952839329
865,24.0
905,23.78919973446709
945,23.89542199291536
985,24.686621784759756
1025,23.132400319662126
1065,22.86531306552028
1105,21.9949139420652
1145,23.319855587561095
1185,22.922125820737337
1225,24.000000000000005
1265,23.971576342235627
1305,21.330040812630448
1345,24.000000000000019
1385,24.00000000000001
1425,21.35998714912293
1465,24.000000000000015
1505,21.9245367382085
2,1, 7,21, 0, 4, 0.00,10.00,SummerDesignDay
8,13.63560137410855
10,50887076.4886973
1619,0.0
1656,14820173.885867551
2,1, 7,21, 0, 4,10.00,20.00,SummerDesignDay
8,13.612040802606578
10,50887076.4886973
1619,0.0
1656,13603468.27028265
2,1, 7,21, 0, 4,20.00,30.00,SummerDesignDay
8,13.58846620506876
10,50887076.4886973
1619,0.0
1656,12455445.635939833
2,1, 7,21, 0, 4,30.00,40.00,SummerDesignDay
8,13.56487178447336
10,50887076.4886973
1619,0.0
1656,11314220.945288135
2,1, 7,21, 0, 4,40.00,50.00,SummerDesignDay
8,13.541257354069103
10,50887076.4886973
1619,0.0
1656,10179795.13814821
2,1, 7,21, 0, 4,50.00,60.00,SummerDesignDay
8,13.517617463812285
10,50887076.4886973
1619,0.0
1656,9050935.27362681
2,1, 7,21, 0, 4, 0.00,60.00,SummerDesignDay
745,21.941684315339914
785,22.718293498230243
825,21.983270862393998
865,24.0
905,23.550140673055514
945,23.638706811593467
985,24.361641950416215
1025,22.962176495357153
1065,22.680872597082126
1105,21.708732574059494
1145,23.07151789880511
1185,22.761745747306369
1225,24.0
1265,23.76645036818819
1305,20.88787391590024
1345,24.000000000000026
1385,24.00000000000001
1425,20.92405232351826
1465,24.000000000000005
1505,21.666409547158847
2,1, 7,21, 0, 5, 0.00,10.00,SummerDesignDay
8,13.50185415824011
10,50887076.4886973
1619,0.0
1656,8106131.749929252
2,1, 7,21, 0, 5,10.00,20.00,SummerDesignDay
8,13.486076034032447
10,50887076.4886973
1619,0.0
1656,8347039.657218707
2,1, 7,21, 0, 5,20.00,30.00,SummerDesignDay
8,13.470289340350983
10,50887076.4886973
1619,0.0
1656,8501823.900962435
2,1, 7,21, 0, 5,30.00,40.00,SummerDesignDay
8,13.454493322631063
10,50887076.4886973
1619,0.0
1656,8621745.93239679
2,1, 7,21, 0, 5,40.00,50.00,SummerDesignDay
8,13.438688835118548
10,50887076.4886973
1619,0.0
1656,8678278.508586918
2,1, 7,21, 0, 5,50.00,60.00,SummerDesignDay
8,13.422888173889437
10,50887076.4886973
1619,0.0
1656,8601878.881641197
2,1, 7,21, 0, 5, 0.00,60.00,SummerDesignDay
745,21.74329653152626
785,22.47407120381594
825,21.975285165625704
865,24.0
905,23.33773330083126
945,23.50611274847017
985,24.163298887296226
1025,22.808866435534424
1065,22.514834325692779
1105,21.656090948119659
1145,22.87057259441752
1185,22.62653620981421
1225,23.980427482037098
1265,23.59235455615836
1305,20.718510741796594
1345,24.00000000000004
1385,24.00000000000001
1425,20.669462624380388
1465,24.00000000000001
1505,21.442247996409777
2,1, 7,21, 0, 6, 0.00,10.00,SummerDesignDay
8,13.438688835118548
10,50887076.4886973
1619,0.0
1656,9019399.786136629
2,1, 7,21, 0, 6,10.00,20.00,SummerDesignDay
8,13.454493322631063
10,50887076.4886973
1619,0.0
1656,9308381.544088861
2,1, 7,21, 0, 6,20.00,30.00,SummerDesignDay
8,13.470289340350983
10,50887076.4886973
1619,0.0
1656,9520377.419332808
2,1, 7,21, 0, 6,30.00,40.00,SummerDesignDay
8,13.486076034032447
10,50887076.4886973
1619,0.0
1656,9709500.48655267
2,1, 7,21, 0, 6,40.00,50.00,SummerDesignDay
8,13.50185415824011
10,50887076.4886973
1619,0.0
1656,9901886.544043767
2,1, 7,21, 0, 6,50.00,60.00,SummerDesignDay
8,13.517617463812285
10,50887076.4886973
1619,0.0
1656,10152887.36164014
2,1, 7,21, 0, 6, 0.00,60.00,SummerDesignDay
745,21.826200807337036
785,22.603744836949177
825,23.050240827079404
865,24.00000000000003
905,23.18740739371312
945,23.820687220674516
985,24.04843253315875
1025,22.707694783608959
1065,22.401410589981496
1105,22.053028994878205
1145,22.747296164200959
1185,22.551050356017119
1225,23.92714255706406
1265,23.490808958924004
1305,20.938696993717757
1345,24.000000000000026
1385,24.000000000000015
1425,20.57580149122441
1465,24.000000000000005
1505,21.33160073666075
2,1, 7,21, 0, 7, 0.00,10.00,SummerDesignDay
8,13.572736920571789
10,60888243.25231991
1619,0.0
1656,14553318.814250993
2,1, 7,21, 0, 7,10.00,20.00,SummerDesignDay
8,13.627748229152554
10,60888243.25231991
1619,0.0
1656,20279782.57536053
2,1, 7,21, 0, 7,20.00,30.00,SummerDesignDay
8,13.682651961920304
10,60888243.25231991
1619,0.0
1656,28979836.24849806
2,1, 7,21, 0, 7,30.00,40.00,SummerDesignDay
8,13.737448093244995
10,60888243.25231991
1619,0.0
1656,31018066.80988499
2,1, 7,21, 0, 7,40.00,50.00,SummerDesignDay
8,13.792137011831216
10,60888243.25231991
1619,0.0
1656,36364820.06458563
2,1, 7,21, 0, 7,50.00,60.00,SummerDesignDay
8,13.846719282840333
10,60888243.25231991
1619,0.0
1656,40165931.8235345
2,1, 7,21, 0, 7, 0.00,60.00,SummerDesignDay
745,22.246673024416738
785,23.200241610394543
825,23.968529701845048
865,24.000000000000019
905,23.16582906961304
945,24.000027379049006
985,24.061942180046928
1025,22.722750125708477
1065,22.406905333588339
1105,22.427532824982437
1145,22.816167420896034
1185,22.740129690558154
1225,23.977366456408775
1265,23.50648575455887
1305,21.403173718220317
1345,24.000000000000015
1385,24.00000000000001
1425,20.75997666303817
1465,24.0
1505,21.436407266897989
2,1, 7,21, 0, 8, 0.00,10.00,SummerDesignDay
8,13.978831900527043
10,81194324.2505171
1619,0.0
1656,52362257.34339218
2,1, 7,21, 0, 8,10.00,20.00,SummerDesignDay
8,14.110321014287419
10,81194324.2505171
1619,0.0
1656,63399994.964619148
2,1, 7,21, 0, 8,20.00,30.00,SummerDesignDay
8,14.241191509616986
10,81194324.2505171
1619,0.0
1656,72926168.75407511
2,1, 7,21, 0, 8,30.00,40.00,SummerDesignDay
8,14.371447531304272
10,81194324.2505171
1619,0.0
1656,79637605.56698898
2,1, 7,21, 0, 8,40.00,50.00,SummerDesignDay
8,14.501093766564925
10,81194324.2505171
1619,0.0
1656,87704819.74479085
2,1, 7,21, 0, 8,50.00,60.00,SummerDesignDay
8,14.630134792273804
10,81194324.2505171
1619,0.0
1656,96279019.58869566
2,1, 7,21, 0, 8, 0.00,60.00,SummerDesignDay
745,23.287775792261969
785,23.972664439447354
825,23.999999999082108
865,24.000000000000005
905,23.34029255623666
945,24.00000000000003
985,24.27474953031705
1025,22.928620964718858
1065,22.607347030927838
1105,23.40069697033105
1145,23.171499627615959
1185,23.256178776110447
1225,23.999999969498928
1265,23.709867005463555
1305,22.255392177192637
1345,24.000000000000026
1385,24.00000000000001
1425,21.416093059340868
1465,24.000000000000019
1505,21.903642010074156
2,1, 7,21, 0, 9, 0.00,10.00,SummerDesignDay
8,14.773641492809972
10,120385248.07254707
1619,0.0
1656,132476028.26033528
2,1, 7,21, 0, 9,10.00,20.00,SummerDesignDay
8,14.91640948124148
10,120385248.07254707
1619,0.0
1656,141696113.99157147
2,1, 7,21, 0, 9,20.00,30.00,SummerDesignDay
8,15.05843890714102
10,120385248.07254707
1619,0.0
1656,154807174.3942927
2,1, 7,21, 0, 9,30.00,40.00,SummerDesignDay
8,15.199735893563798
10,120385248.07254707
1619,0.0
1656,166281329.56191538
2,1, 7,21, 0, 9,40.00,50.00,SummerDesignDay
8,15.340306256439395
10,120385248.07254707
1619,0.0
1656,177458360.65248335
2,1, 7,21, 0, 9,50.00,60.00,SummerDesignDay
8,15.48015101768072
10,120385248.07254707
1619,0.0
1656,192592805.26761017
2,1, 7,21, 0, 9, 0.00,60.00,SummerDesignDay
745,23.99976089220867
785,23.999999999796456
825,24.00000000000003
865,24.000000000000033
905,23.751856774348924
945,24.00000000000001
985,23.992479341561507
1025,23.68645891441977
1065,23.229210908865765
1105,23.99996938275932
1145,23.719511594137165
1185,23.799077843430515
1225,24.0
1265,24.12430606487993
1305,23.415618564273829
1345,24.0
1385,24.000000000000015
1425,22.52937318503476
1465,24.00000000000001
1505,23.18799724980651
2,1, 7,21, 0,10, 0.00,10.00,SummerDesignDay
8,15.60467292907716
10,163674887.78401397
1619,0.0
1656,231354975.35695146
2,1, 7,21, 0,10,10.00,20.00,SummerDesignDay
8,15.72862731650033
10,163674887.78401397
1619,0.0
1656,255541339.07346428
2,1, 7,21, 0,10,20.00,30.00,SummerDesignDay
8,15.852017409284228
10,163674887.78401397
1619,0.0
1656,279210470.72189286
2,1, 7,21, 0,10,30.00,40.00,SummerDesignDay
8,15.974848118364367
10,163674887.78401397
1619,0.0
1656,294951766.67397877
2,1, 7,21, 0,10,40.00,50.00,SummerDesignDay
8,16.097123145563505
10,163674887.78401397
1619,0.0
1656,313903213.405831
2,1, 7,21, 0,10,50.00,60.00,SummerDesignDay
8,16.218846351168599
10,163674887.78401397
1619,0.0
1656,331995749.0192371
2,1, 7,21, 0,10, 0.00,60.00,SummerDesignDay
745,23.99999999999996
785,24.000000000000047
825,24.000000000000044
865,23.999999999999984
905,24.316917354271653
945,24.000000000000019
985,23.999999999999845
1025,23.999993230985056
1065,23.95630067417379
1105,24.000000000000005
1145,23.999419679476266
1185,23.968739882169257
1225,24.000000000000005
1265,24.6549009730544
1305,23.999382537329045
1345,24.000000000000005
1385,24.0
1425,23.830040709430489
1465,24.000000000000005
1505,23.99802501593904
2,1, 7,21, 0,11, 0.00,10.00,SummerDesignDay
8,16.325793027093189
10,176072284.6062816
1619,0.0
1656,355501637.2139156
2,1, 7,21, 0,11,10.00,20.00,SummerDesignDay
8,16.432322158488288
10,176072284.6062816
1619,0.0
1656,371435777.32915946
2,1, 7,21, 0,11,20.00,30.00,SummerDesignDay
8,16.538424180249178
10,176072284.6062816
1619,0.0
1656,386387764.9834235
2,1, 7,21, 0,11,30.00,40.00,SummerDesignDay
8,16.644108396469087
10,176072284.6062816
1619,0.0
1656,401141792.29669019
2,1, 7,21, 0,11,40.00,50.00,SummerDesignDay
8,16.749376736593655
10,176072284.6062816
1619,0.0
1656,415542095.37320646
2,1, 7,21, 0,11,50.00,60.00,SummerDesignDay
8,16.854232613237156
10,176072284.6062816
1619,0.0
1656,429857192.84286388
2,1, 7,21, 0,11, 0.00,60.00,SummerDesignDay
745,24.0
785,24.0
825,23.99999999999997
865,24.000000000000019
905,24.98025308590599
945,23.99999999999999
985,24.000000000000033
1025,23.999999999999998
1065,23.999999999978326
1105,24.0
1145,23.99999999999972
1185,23.9999995819386
1225,24.000000000000015
1265,25.24437203967685
1305,23.99999999680465
1345,24.00000000000003
1385,24.00000000000001
1425,23.99998534026275
1465,23.999999999999998
1505,23.999999999290936
2,1, 7,21, 0,12, 0.00,10.00,SummerDesignDay
8,16.92390823520069
10,177591021.9677016
1619,0.0
1656,446346797.74677148
2,1, 7,21, 0,12,10.00,20.00,SummerDesignDay
8,16.99340178950456
10,177591021.9677016
1619,0.0
1656,456837531.9773019
2,1, 7,21, 0,12,20.00,30.00,SummerDesignDay
8,17.06272006743463
10,177591021.9677016
1619,0.0
1656,467262945.6084575
2,1, 7,21, 0,12,30.00,40.00,SummerDesignDay
8,17.131853229172639
10,177591021.9677016
1619,0.0
1656,477650757.3851348
2,1, 7,21, 0,12,40.00,50.00,SummerDesignDay
8,17.200807172194087
10,177591021.9677016
1619,0.0
1656,487539964.07107189
2,1, 7,21, 0,12,50.00,60.00,SummerDesignDay
8,17.269582116758607
10,177591021.9677016
1619,0.0
1656,496942712.1748972
2,1, 7,21, 0,12, 0.00,60.00,SummerDesignDay
745,24.000000000000015
785,24.0
825,24.000000000000015
865,23.99999999999996
905,25.68236674922952
945,24.00000000000001
985,24.00000000000001
1025,24.00000000000001
1065,23.999999999999998
1105,24.000000000000033
1145,24.00000000000001
1185,23.999999999999987
1225,24.000000000000019
1265,25.85570535882219
1305,23.99999999999981
1345,24.0
1385,24.000000000000019
1425,23.999999999038029
1465,23.999999999999998
1505,23.999999999999987
2,1, 7,21, 0,13, 0.00,10.00,SummerDesignDay
8,17.32447360221357
10,172382315.3181399
1619,0.0
1656,506514357.39065119
2,1, 7,21, 0,13,10.00,20.00,SummerDesignDay
8,17.379251291230806
10,172382315.3181399
1619,0.0
1656,513804405.041347
2,1, 7,21, 0,13,20.00,30.00,SummerDesignDay
8,17.433921312061729
10,172382315.3181399
1619,0.0
1656,520962452.7704341
2,1, 7,21, 0,13,30.00,40.00,SummerDesignDay
8,17.488473222557489
10,172382315.3181399
1619,0.0
1656,528029919.7585449
2,1, 7,21, 0,13,40.00,50.00,SummerDesignDay
8,17.542913447755134
10,172382315.3181399
1619,0.0
1656,534851497.2768246
2,1, 7,21, 0,13,50.00,60.00,SummerDesignDay
8,17.59724609886134
10,172382315.3181399
1619,0.0
1656,541392696.5344563
2,1, 7,21, 0,13, 0.00,60.00,SummerDesignDay
745,24.000000000000055
785,24.000000000000015
825,24.000000000000033
865,23.999999999999984
905,26.208747616975363
945,24.000000000000019
985,24.000000000000015
1025,24.000000000000015
1065,23.999999999999998
1105,24.000000000000019
1145,24.0
1185,24.0
1225,24.00000000000001
1265,26.300145225111039
1305,23.999999999999955
1345,24.000000000000019
1385,24.000000000000015
1425,23.99999999999994
1465,24.000000000000015
1505,24.00000000000001
2,1, 7,21, 0,14, 0.00,10.00,SummerDesignDay
8,17.6311450462694
10,172382315.3181399
1619,0.0
1656,544455636.618363
2,1, 7,21, 0,14,10.00,20.00,SummerDesignDay
8,17.665000449016245
10,172382315.3181399
1619,0.0
1656,548534556.4436853
2,1, 7,21, 0,14,20.00,30.00,SummerDesignDay
8,17.698812743128934
10,172382315.3181399
1619,0.0
1656,552512297.2839958
2,1, 7,21, 0,14,30.00,40.00,SummerDesignDay
8,17.732582050940107
10,172382315.3181399
1619,0.0
1656,556406417.168473
2,1, 7,21, 0,14,40.00,50.00,SummerDesignDay
8,17.766307345121004
10,172382315.3181399
1619,0.0
1656,560240217.2292093
2,1, 7,21, 0,14,50.00,60.00,SummerDesignDay
8,17.79999023167558
10,172382315.3181399
1619,0.0
1656,564010593.7976251
2,1, 7,21, 0,14, 0.00,60.00,SummerDesignDay
745,24.00000000000007
785,24.000000000000033
825,24.00000000000001
865,23.999999999999959
905,26.59781109626731
945,24.000000000000019
985,24.00000000000004
1025,24.000000000000005
1065,24.000000000000015
1105,24.00000000000004
1145,23.999999999999998
1185,24.0
1225,24.000000000000019
1265,26.588350259399645
1305,23.999999999999987
1345,24.000000000000033
1385,24.00000000000001
1425,24.000000000000019
1465,24.000000000000019
1505,24.000000000000019
2,1, 7,21, 0,15, 0.00,10.00,SummerDesignDay
8,17.79999023167558
10,172382315.3181399
1619,0.0
1656,674961901.5512755
2,1, 7,21, 0,15,10.00,20.00,SummerDesignDay
8,17.79999023167558
10,172382315.3181399
1619,0.0
1656,596002865.5339919
2,1, 7,21, 0,15,20.00,30.00,SummerDesignDay
8,17.79999023167558
10,172382315.3181399
1619,0.0
1656,631390117.4347465
2,1, 7,21, 0,15,30.00,40.00,SummerDesignDay
8,17.79999023167558
10,172382315.3181399
1619,0.0
1656,592144221.1618412
2,1, 7,21, 0,15,40.00,50.00,SummerDesignDay
8,17.79999023167558
10,172382315.3181399
1619,0.0
1656,595250178.3181512
2,1, 7,21, 0,15,50.00,60.00,SummerDesignDay
8,17.79999023167558
10,172382315.3181399
1619,0.0
1656,594927748.6599909
2,1, 7,21, 0,15, 0.00,60.00,SummerDesignDay
745,24.00000000000001
785,23.999999999999998
825,24.000000000000019
865,24.00000000000003
905,23.908938191706473
945,24.00000000000004
985,24.000000000000026
1025,24.000000000000005
1065,24.00000000000001
1105,24.0
1145,24.000000000000005
1185,24.0
1225,24.00000000000001
1265,23.91375329795304
1305,24.00000000000001
1345,24.000000000000026
1385,24.00000000000001
1425,24.000000000000015
1465,24.000000000000005
1505,24.000000000000019
2,1, 7,21, 0,16, 0.00,10.00,SummerDesignDay
8,17.759562446305357
10,185139709.14353303
1619,0.0
1656,591866160.5569087
2,1, 7,21, 0,16,10.00,20.00,SummerDesignDay
8,17.71907809634183
10,185139709.14353303
1619,0.0
1656,587150176.7300962
2,1, 7,21, 0,16,20.00,30.00,SummerDesignDay
8,17.67853788661001
10,185139709.14353303
1619,0.0
1656,581746085.7823675
2,1, 7,21, 0,16,30.00,40.00,SummerDesignDay
8,17.63791796367351
10,185139709.14353303
1619,0.0
1656,575959382.9619002
2,1, 7,21, 0,16,40.00,50.00,SummerDesignDay
8,17.59724609886134
10,185139709.14353303
1619,0.0
1656,569849769.3307194
2,1, 7,21, 0,16,50.00,60.00,SummerDesignDay
8,17.55650676726033
10,185139709.14353303
1619,0.0
1656,563449805.8762512
2,1, 7,21, 0,16, 0.00,60.00,SummerDesignDay
745,24.00000000000003
785,24.000000000000044
825,24.000000000000058
865,24.000000000000015
905,23.999999999999479
945,24.0
985,24.000000000000019
1025,24.000000000000015
1065,24.0
1105,24.000000000000015
1145,24.00000000000001
1185,24.000000000000005
1225,24.000000000000019
1265,23.999999999999305
1305,24.00000000000001
1345,24.000000000000033
1385,24.000000000000015
1425,24.00000000000001
1465,24.000000000000015
1505,24.000000000000044
2,1, 7,21, 0,17, 0.00,10.00,SummerDesignDay
8,17.50209486331892
10,174099801.02642513
1619,0.0
1656,549818000.1856356
2,1, 7,21, 0,17,10.00,20.00,SummerDesignDay
8,17.447570789624618
10,174099801.02642513
1619,0.0
1656,541180778.2210517
2,1, 7,21, 0,17,20.00,30.00,SummerDesignDay
8,17.392929544208135
10,174099801.02642513
1619,0.0
1656,532586716.73141309
2,1, 7,21, 0,17,30.00,40.00,SummerDesignDay
8,17.33818013976614
10,174099801.02642513
1619,0.0
1656,523854316.0683948
2,1, 7,21, 0,17,40.00,50.00,SummerDesignDay
8,17.283317298559309
10,174099801.02642513
1619,0.0
1656,514736752.2031769
2,1, 7,21, 0,17,50.00,60.00,SummerDesignDay
8,17.22833552437677
10,174099801.02642513
1619,0.0
1656,505029756.04746356
2,1, 7,21, 0,17, 0.00,60.00,SummerDesignDay
745,24.0
785,24.00000000000004
825,24.000000000000026
865,24.00000000000007
905,24.00000000000001
945,24.000000000000019
985,24.00000000000006
1025,24.000000000000005
1065,24.00000000000001
1105,24.0
1145,24.0
1185,24.0
1225,24.000000000000005
1265,24.000000000000019
1305,24.00000000000001
1345,24.0
1385,24.000000000000005
1425,23.99999999999999
1465,24.0
1505,24.000000000000019
2,1, 7,21, 0,18, 0.00,10.00,SummerDesignDay
8,17.159453019160176
10,161979901.89812429
1619,0.0
1656,490128536.35548087
2,1, 7,21, 0,18,10.00,20.00,SummerDesignDay
8,17.090391773337136
10,161979901.89812429
1619,0.0
1656,478097476.2259563
2,1, 7,21, 0,18,20.00,30.00,SummerDesignDay
8,17.021151077964786
10,161979901.89812429
1619,0.0
1656,466026640.9552222
2,1, 7,21, 0,18,30.00,40.00,SummerDesignDay
8,16.951729380464653
10,161979901.89812429
1619,0.0
1656,453961854.18576475
2,1, 7,21, 0,18,40.00,50.00,SummerDesignDay
8,16.882126503829249
10,161979901.89812429
1619,0.0
1656,441981802.5325615
2,1, 7,21, 0,18,50.00,60.00,SummerDesignDay
8,16.812341807494034
10,161979901.89812429
1619,0.0
1656,430023460.868452
2,1, 7,21, 0,18, 0.00,60.00,SummerDesignDay
745,24.000000000000019
785,24.000000000000047
825,24.000000000000015
865,24.000000000000005
905,24.000000000000026
945,23.999999999999984
985,24.000000000000058
1025,24.000000000000026
1065,24.0
1105,24.0
1145,24.000000000000005
1185,24.0
1225,24.000000000000019
1265,24.00000000000001
1305,24.000000000000019
1345,24.000000000000015
1385,24.00000000000001
1425,24.0
1465,24.0
1505,24.00000000000001
2,1, 7,21, 0,19, 0.00,10.00,SummerDesignDay
8,16.707321072823203
10,153069976.05325956
1619,0.0
1656,411531812.88269767
2,1, 7,21, 0,19,10.00,20.00,SummerDesignDay
8,16.601881826644556
10,153069976.05325956
1619,0.0
1656,393999819.80265668
2,1, 7,21, 0,19,20.00,30.00,SummerDesignDay
8,16.496030555252849
10,153069976.05325956
1619,0.0
1656,377375877.88303419
2,1, 7,21, 0,19,30.00,40.00,SummerDesignDay
8,16.389760181474104
10,153069976.05325956
1619,0.0
1656,360926672.14902839
2,1, 7,21, 0,19,40.00,50.00,SummerDesignDay
8,16.283067654262039
10,153069976.05325956
1619,0.0
1656,344692428.641116
2,1, 7,21, 0,19,50.00,60.00,SummerDesignDay
8,16.17595057957811
10,153069976.05325956
1619,0.0
1656,328601147.80797836
2,1, 7,21, 0,19, 0.00,60.00,SummerDesignDay
745,24.000000000000005
785,24.000000000000033
825,24.000000000000015
865,24.0
905,24.000000000000015
945,24.000000000000015
985,24.00000000000003
1025,23.999999999999998
1065,24.000000000000005
1105,24.00000000000001
1145,24.0
1185,24.0
1225,24.000000000000019
1265,24.00000000000001
1305,24.00000000000001
1345,24.00000000000004
1385,24.000000000000019
1425,24.00000000000001
1465,24.000000000000026
1505,24.0
2,1, 7,21, 0,20, 0.00,10.00,SummerDesignDay
8,16.097123145563505
10,194023385.21181617
1619,0.0
1656,321078685.84265157
2,1, 7,21, 0,20,10.00,20.00,SummerDesignDay
8,16.018070242471564
10,194023385.21181617
1619,0.0
1656,313169160.180855
2,1, 7,21, 0,20,20.00,30.00,SummerDesignDay
8,15.938779752340516
10,194023385.21181617
1619,0.0
1656,302535662.83972409
2,1, 7,21, 0,20,30.00,40.00,SummerDesignDay
8,15.85926152575189
10,194023385.21181617
1619,0.0
1656,291723901.63595166
2,1, 7,21, 0,20,40.00,50.00,SummerDesignDay
8,15.779503718563929
10,194023385.21181617
1619,0.0
1656,280581364.9061881
2,1, 7,21, 0,20,50.00,60.00,SummerDesignDay
8,15.699515709672767
10,194023385.21181617
1619,0.0
1656,269084767.7584532
2,1, 7,21, 0,20, 0.00,60.00,SummerDesignDay
745,24.876807166976265
785,24.00000000000001
825,24.00000000000001
865,24.000000000000033
905,24.000000000000005
945,24.000000000000005
985,24.000000000000005
1025,24.000000000000015
1065,24.0
1105,25.115963315147828
1145,24.000000000000005
1185,24.0
1225,24.000000000000015
1265,24.000000000000019
1305,23.999999999999984
1345,24.00000000000003
1385,24.000000000000015
1425,24.00000000000003
1465,24.0
1505,24.00000000000001
2,1, 7,21, 0,21, 0.00,10.00,SummerDesignDay
8,15.63389147320404
10,203360807.49974675
1619,0.0
1656,264911358.19660393
2,1, 7,21, 0,21,10.00,20.00,SummerDesignDay
8,15.56810827419793
10,203360807.49974675
1619,0.0
1656,254855527.1599457
2,1, 7,21, 0,21,20.00,30.00,SummerDesignDay
8,15.502170882753524
10,203360807.49974675
1619,0.0
1656,244274827.3894148
2,1, 7,21, 0,21,30.00,40.00,SummerDesignDay
8,15.436068032613852
10,203360807.49974675
1619,0.0
1656,233673788.21068178
2,1, 7,21, 0,21,40.00,50.00,SummerDesignDay
8,15.369804371206009
10,203360807.49974675
1619,0.0
1656,223518643.13695167
2,1, 7,21, 0,21,50.00,60.00,SummerDesignDay
8,15.303384603594449
10,203360807.49974675
1619,0.0
1656,213048212.3174388
2,1, 7,21, 0,21, 0.00,60.00,SummerDesignDay
745,24.75889636254196