Program Version,EnergyPlus, Version 8.9.0-eba93e8e1b, YMD=2019.03.19 18:43
1,5,Environment Title[],Latitude[deg],Longitude[deg],Time Zone[],Elevation[m]
2,8,Day of Simulation[],Month[],Day of Month[],DST Indicator[1=yes 0=no],Hour[],StartMinute[],EndMinute[],DayType
3,5,Cumulative Day of Simulation[],Month[],Day of Month[],DST Indicator[1=yes 0=no],DayType  ! When Daily Report Variables Requested
4,2,Cumulative Days of Simulation[],Month[]  ! When Monthly Report Variables Requested
5,1,Cumulative Days of Simulation[] ! When Run Period Report Variables Requested
6,1,Calendar Year of Simulation[] ! When Annual Report Variables Requested
7,9,Environment,Site Outdoor Air Drybulb Temperature [C] !Monthly [Value,Min,Day,Hour,Minute,Max,Day,Hour,Minute]
8,1,Environment,Site Outdoor Air Wetbulb Temperature [C] !TimeStep
1047,1,ALL_ST=PENITENTIARY - DINING_FL=STORY 4_SCH=B,Zone Air Temperature [C] !Hourly
1048,7,ALL_ST=PENITENTIARY - DINING_FL=STORY 4_SCH=B,Zone Air Relative Humidity [%] !Daily [Value,Min,Hour,Minute,Max,Hour,Minute]
1087,1,ALL_ST=POST OFFICE SORTING_FL=STORY 4_SCH=A,Zone Air Temperature [C] !Hourly
1088,7,ALL_ST=POST OFFICE SORTING_FL=STORY 4_SCH=A,Zone Air Relative Humidity [%] !Daily [Value,Min,Hour,Minute,Max,Hour,Minute]
1127,1,ALL_ST=RELIGIOUS - AUDIENCE_FL=STORY 4_SCH=I,Zone Air Temperature [C] !Hourly
1128,7,ALL_ST=RELIGIOUS - AUDIENCE_FL=STORY 4_SCH=I,Zone Air Relative Humidity [%] !Daily [Value,Min,Hour,Minute,Max,Hour,Minute]
1167,1,ALL_ST=RELIGIOUS - FELLOWSHIP HALL_FL=STORY 4_SCH=C,Zone Air Temperature [C] !Hourly
1168,7,ALL_ST=RELIGIOUS - FELLOWSHIP HALL_FL=STORY 4_SCH=C,Zone Air Relative Humidity [%] !Daily [Value,Min,Hour,Minute,Max,Hour,Minute]
1207,1,ALL_ST=RELIGIOUS - PULPIT/CHOIR_FL=STORY 3_SCH=I,Zone Air Temperature [C] !Hourly
1208,7,ALL_ST=RELIGIOUS - PULPIT/CHOIR_FL=STORY 3_SCH=I,Zone Air Relative Humidity [%] !Daily [Value,Min,Hour,Minute,Max,Hour,Minute]
1247,1,ALL_ST=RETAIL - DRESSING/FITTING_FL=STORY 3_SCH=C,Zone Air Temperature [C] !Hourly
1248,7,ALL_ST=RETAIL - DRESSING/FITTING_FL=STORY 3_SCH=C,Zone Air Relative Humidity [%] !Daily [Value,Min,Hour,Minute,Max,Hour,Minute]
1287,1,ALL_ST=RETAIL - MALL CONCOURSE_FL=STORY 3_SCH=C,Zone Air Temperature [C] !Hourly
1288,7,ALL_ST=RETAIL - MALL CONCOURSE_FL=STORY 3_SCH=C,Zone Air Relative Humidity [%] !Daily [Value,Min,Hour,Minute,Max,Hour,Minute]
1327,1,ALL_ST=RETAIL - SALES_FL=STORY 3_SCH=C,Zone Air Temperature [C] !Hourly
1328,7,ALL_ST=RETAIL - SALES_FL=STORY 3_SCH=C,Zone Air Relative Humidity [%] !Daily [Value,Min,Hour,Minute,Max,Hour,Minute]
1367,1,ALL_ST=SALES AREA_FL=STORY 1_SCH=C,Zone Air Temperature [C] !Hourly
1368,7,ALL_ST=SALES AREA_FL=STORY 1_SCH=C,Zone Air Relative Humidity [%] !Daily [Value,Min,Hour,Minute,Max,Hour,Minute]
1407,1,ALL_ST=SPORTS ARENA - AUDIENCE_FL=STORY 3_SCH=B,Zone Air Temperature [C] !Hourly
1408,7,ALL_ST=SPORTS ARENA - AUDIENCE_FL=STORY 3_SCH=B,Zone Air Relative Humidity [%] !Daily [Value,Min,Hour,Minute,Max,Hour,Minute]
1447,1,ALL_ST=SPORTS ARENA - COURT C1_FL=STORY 1_SCH=B,Zone Air Temperature [C] !Hourly
1448,7,ALL_ST=SPORTS ARENA - COURT C1_FL=STORY 1_SCH=B,Zone Air Relative Humidity [%] !Daily [Value,Min,Hour,Minute,Max,Hour,Minute]
1487,1,ALL_ST=SPORTS ARENA - COURT C2_FL=STORY 2_SCH=B,Zone Air Temperature [C] !Hourly
1488,7,ALL_ST=SPORTS ARENA - COURT C2_FL=STORY 2_SCH=B,Zone Air Relative Humidity [%] !Daily [Value,Min,Hour,Minute,Max,Hour,Minute]
1527,1,ALL_ST=SPORTS ARENA - COURT C3_FL=STORY 1_SCH=B,Zone Air Temperature [C] !Hourly
1528,7,ALL_ST=SPORTS ARENA - COURT C3_FL=STORY 1_SCH=B,Zone Air Relative Humidity [%] !Daily [Value,Min,Hour,Minute,Max,Hour,Minute]
1567,1,ALL_ST=SPORTS ARENA - COURT C4_FL=STORY 2_SCH=B,Zone Air Temperature [C] !Hourly
1568,7,ALL_ST=SPORTS ARENA - COURT C4_FL=STORY 2_SCH=B,Zone Air Relative Humidity [%] !Daily [Value,Min,Hour,Minute,Max,Hour,Minute]
1607,1,ALL_ST=SPORTS ARENA - RING_FL=STORY 2_SCH=B,Zone Air Temperature [C] !Hourly
1608,7,ALL_ST=SPORTS ARENA - RING_FL=STORY 2_SCH=B,Zone Air Relative Humidity [%] !Daily [Value,Min,Hour,Minute,Max,Hour,Minute]
1647,1,WILD_ST=STAIRWAY-SCH-A_FL=STORY 1_SCH=B,Zone Air Temperature [C] !Hourly
1648,7,WILD_ST=STAIRWAY-SCH-A_FL=STORY 1_SCH=B,Zone Air Relative Humidity [%] !Daily [Value,Min,Hour,Minute,Max,Hour,Minute]
1687,1,WILD_ST=STAIRWAY-SCH-B_FL=STORY 1_SCH=B,Zone Air Temperature [C] !Hourly
1688,7,WILD_ST=STAIRWAY-SCH-B_FL=STORY 1_SCH=B,Zone Air Relative Humidity [%] !Daily [Value,Min,Hour,Minute,Max,Hour,Minute]
1727,1,WILD_ST=STAIRWAY-SCH-C_FL=STORY 2_SCH=B,Zone Air Temperature [C] !Hourly
1728,7,WILD_ST=STAIRWAY-SCH-C_FL=STORY 2_SCH=B,Zone Air Relative Humidity [%] !Daily [Value,Min,Hour,Minute,Max,Hour,Minute]
1767,1,WILD_ST=STAIRWAY-SCH-D_FL=STORY 4_SCH=B,Zone Air Temperature [C] !Hourly
1768,7,WILD_ST=STAIRWAY-SCH-D_FL=STORY 4_SCH=B,Zone Air Relative Humidity [%] !Daily [Value,Min,Hour,Minute,Max,Hour,Minute]
1807,1,WILD_ST=STAIRWAY-SCH-E_FL=STORY 2_SCH=B,Zone Air Temperature [C] !Hourly
1808,7,WILD_ST=STAIRWAY-SCH-E_FL=STORY 2_SCH=B,Zone Air Relative Humidity [%] !Daily [Value,Min,Hour,Minute,Max,Hour,Minute]
10,1,Electricity:Facility [J] !TimeStep
813,1,Gas:Facility [J] !TimeStep
End of Data Dictionary
1,FORT MCMURRAY AP ANN CLG .4% CONDNS DB=>MWB,  56.65,-111.22,  -7.00, 369.10
2,1, 7,21, 0, 1, 0.00,10.00,SummerDesignDay
8,14.218136923962174
10,300453880.60565498
813,111416086.58936987
2,1, 7,21, 0, 1,10.00,20.00,SummerDesignDay
8,14.171982153293495
10,298976609.7701323
813,111142094.78062245
2,1, 7,21, 0, 1,20.00,30.00,SummerDesignDay
8,14.125744780286427
10,298842080.1335099
813,130381105.71947867
2,1, 7,21, 0, 1,30.00,40.00,SummerDesignDay
8,14.079436086331978
10,298743625.7643358
813,139149323.3178679
2,1, 7,21, 0, 1,40.00,50.00,SummerDesignDay
8,14.033050387896898
10,298592888.0417197
813,111381353.86593767
2,1, 7,21, 0, 1,50.00,60.00,SummerDesignDay
8,13.986581233564835
10,298480403.7606842
813,111636946.18737829
2,1, 7,21, 0, 1, 0.00,60.00,SummerDesignDay
1047,22.325173577267038
1087,20.66409873972158
1127,22.850725999698196
1167,20.884502408124648
1207,23.54105855653934
1247,23.91898599203976
1287,23.549804428368018
1327,23.44261317854856
1367,23.993554926319506
1407,22.585935599379025
1447,23.997981361496767
1487,23.998010778686269
1527,23.9980329151888
1567,23.998141721466344
1607,23.998006899540174
1647,23.999899792938029
1687,23.845778593457596
1727,22.795321012712806
1767,22.000146891554818
1807,23.4593343281523
2,1, 7,21, 0, 2, 0.00,10.00,SummerDesignDay
8,13.95555882260429
10,167567210.517169
813,100839387.27459598
2,1, 7,21, 0, 2,10.00,20.00,SummerDesignDay
8,13.924507755336454
10,167461395.60417135
813,103452977.19811104
2,1, 7,21, 0, 2,20.00,30.00,SummerDesignDay
8,13.893416042989206
10,167328118.45108608
813,104832254.63310686
2,1, 7,21, 0, 2,30.00,40.00,SummerDesignDay
8,13.862289589689029
10,167765098.14612956
813,105268972.87864952
2,1, 7,21, 0, 2,40.00,50.00,SummerDesignDay
8,13.831134407608739
10,171202195.14272399
813,109696590.74015676
2,1, 7,21, 0, 2,50.00,60.00,SummerDesignDay
8,13.799938415548118
10,171647607.07006497
813,108775725.64224926
2,1, 7,21, 0, 2, 0.00,60.00,SummerDesignDay
1047,22.00043641003609
1087,20.398208879788354
1127,21.456034091693267
1167,20.37524797226854
1207,22.698887274643018
1247,23.764681087001696
1287,23.44436512226712
1327,23.24531831491142
1367,23.932813514503036
1407,22.11980431972771
1447,24.995868934580746
1487,24.713457993992944
1527,24.37707969364861
1567,24.282070350332618
1607,24.63730279513754
1647,24.47613546739602
1687,24.313548210448
1727,23.968250747035304
1767,22.811631416814494
1807,24.207383864389887
2,1, 7,21, 0, 3, 0.00,10.00,SummerDesignDay
8,13.776521671948676
10,89344938.92302332
813,12000.0
2,1, 7,21, 0, 3,10.00,20.00,SummerDesignDay
8,13.753085235778466
10,89339951.24729924
813,40424389.88401738
2,1, 7,21, 0, 3,20.00,30.00,SummerDesignDay
8,13.729636002354969
10,89342663.08055887
813,12000.0
2,1, 7,21, 0, 3,30.00,40.00,SummerDesignDay
8,13.706147375533054
10,89343204.14956382
813,12000.0
2,1, 7,21, 0, 3,40.00,50.00,SummerDesignDay
8,13.682651961920304
10,89218836.62570355
813,12000.0
2,1, 7,21, 0, 3,50.00,60.00,SummerDesignDay
8,13.659136670643687
10,88990203.08577745
813,11628737.868426772
2,1, 7,21, 0, 3, 0.00,60.00,SummerDesignDay
1047,20.56362871566945
1087,20.128361061158043
1127,20.613915439930506
1167,19.942389501461049
1207,22.155827324596485
1247,23.58415583338032
1287,23.30898656844187
1327,23.034392963495454
1367,23.856582520171697
1407,21.558284917431057
1447,24.397666316574726
1487,24.272174430243898
1527,23.873126635434017
1567,23.872909073987189
1607,23.962881086024578
1647,24.6847525715126
1687,24.53188932831874
1727,24.500454966186095
1767,23.069111064056984
1807,24.591283459107716
2,1, 7,21, 0, 4, 0.00,10.00,SummerDesignDay
8,13.63560137410855
10,88760117.16052874
813,28707855.972548106
2,1, 7,21, 0, 4,10.00,20.00,SummerDesignDay
8,13.612040802606578
10,88530545.69161232
813,12000.0
2,1, 7,21, 0, 4,20.00,30.00,SummerDesignDay
8,13.58846620506876
10,88301215.27934966
813,12000.0
2,1, 7,21, 0, 4,30.00,40.00,SummerDesignDay
8,13.56487178447336
10,88071927.03138143
813,12000.0
2,1, 7,21, 0, 4,40.00,50.00,SummerDesignDay
8,13.541257354069103
10,87842712.19780356
813,40390914.55873341
2,1, 7,21, 0, 4,50.00,60.00,SummerDesignDay
8,13.517617463812285
10,87613638.25817959
813,12000.0
2,1, 7,21, 0, 4, 0.00,60.00,SummerDesignDay
1047,19.662426974435676
1087,19.850581549431117
1127,20.113733400776064
1167,19.550007692093918
1207,21.763110599684098
1247,23.37613750645177
1287,23.136017949779459
1327,22.816600295647335
1367,23.746083627569744
1407,21.208246592815873
1447,23.61512170961491
1487,23.7210317472075
1527,23.27210422336174
1567,23.41336728737096
1607,23.299762141376506
1647,24.540933934356148
1687,24.3965259275686
1727,24.3676573716198
1767,22.797584378534638
1807,24.488215596817314
2,1, 7,21, 0, 5, 0.00,10.00,SummerDesignDay
8,13.50185415824011
10,87451471.62281057
813,12000.0
2,1, 7,21, 0, 5,10.00,20.00,SummerDesignDay
8,13.486076034032447
10,87297088.53696142
813,12000.0
2,1, 7,21, 0, 5,20.00,30.00,SummerDesignDay
8,13.470289340350983
10,87144840.49028658
813,40463052.6952727
2,1, 7,21, 0, 5,30.00,40.00,SummerDesignDay
8,13.454493322631063
10,86994753.871628
813,12000.0
2,1, 7,21, 0, 5,40.00,50.00,SummerDesignDay
8,13.438688835118548
10,86845926.62814172
813,12000.0
2,1, 7,21, 0, 5,50.00,60.00,SummerDesignDay
8,13.422888173889437
10,86697808.9855772
813,12000.0
2,1, 7,21, 0, 5, 0.00,60.00,SummerDesignDay
1047,19.365379018553868
1087,19.694014079267104
1127,19.943031617387179
1167,19.38098225163254
1207,21.511847475925479
1247,23.255057077735754
1287,22.96404275987733
1327,22.633093204919743
1367,23.630556437671147
1407,21.017924708658886
1447,23.407587823838147
1487,23.62484693320366
1527,23.133500979933939
1567,23.354520289778646
1607,23.090200187474748
1647,24.435060793521975
1687,24.301818144627317
1727,24.220272430936477
1767,22.590969348397079
1807,24.384616384459325
2,1, 7,21, 0, 6, 0.00,10.00,SummerDesignDay
8,13.438688835118548
10,86817108.32304244
813,40497882.384966988
2,1, 7,21, 0, 6,10.00,20.00,SummerDesignDay
8,13.454493322631063
10,86967665.65366148
813,12000.0
2,1, 7,21, 0, 6,20.00,30.00,SummerDesignDay
8,13.470289340350983
10,87119572.00002773
813,12000.0
2,1, 7,21, 0, 6,30.00,40.00,SummerDesignDay
8,13.486076034032447
10,87272531.76663773
813,12000.0
2,1, 7,21, 0, 6,40.00,50.00,SummerDesignDay
8,13.50185415824011
10,87426366.36820472
813,16542200.436881138
2,1, 7,21, 0, 6,50.00,60.00,SummerDesignDay
8,13.517617463812285
10,87580924.901019
813,23825815.79779908
2,1, 7,21, 0, 6, 0.00,60.00,SummerDesignDay
1047,19.385062860719328
1087,19.79075870623144
1127,20.55765147749402
1167,19.579264806705806
1207,21.661401082354144
1247,23.22229735068799
1287,22.802810412661548
1327,22.484081302341953
1367,23.514800081676396
1407,20.857704057038597
1447,23.2404768254333
1487,23.907671871748986
1527,23.024436095248036
1567,23.384863781533995
1607,22.924102655589008
1647,24.364319110211047
1687,24.24206744085454
1727,24.138723341255419
1767,22.61878627013199
1807,24.321765876803693
2,1, 7,21, 0, 7, 0.00,10.00,SummerDesignDay
8,13.572736920571789
10,91939453.74277382
813,1502139.5628260519
2,1, 7,21, 0, 7,10.00,20.00,SummerDesignDay
8,13.627748229152554
10,88604797.87238635
813,12000.0
2,1, 7,21, 0, 7,20.00,30.00,SummerDesignDay
8,13.682651961920304
10,89136289.84826641
813,12000.0
2,1, 7,21, 0, 7,30.00,40.00,SummerDesignDay
8,13.737448093244995
10,89346939.6125521
813,40388904.4680603
2,1, 7,21, 0, 7,40.00,50.00,SummerDesignDay
8,13.792137011831216
10,89347744.09507261
813,12000.0
2,1, 7,21, 0, 7,50.00,60.00,SummerDesignDay
8,13.846719282840333
10,89348080.72995705
813,12000.0
2,1, 7,21, 0, 7, 0.00,60.00,SummerDesignDay
1047,19.855891698214305
1087,20.151551872439727
1127,21.56016439470757
1167,19.98119758661507
1207,22.086376192686904
1247,23.056591292370546
1287,22.66173540337047
1327,22.369766429493699
1367,23.40106277786494
1407,20.72304119372832
1447,23.113636794610828
1487,24.21324524583476
1527,22.924365386762419
1567,23.269430780017264
1607,22.77696839958884
1647,24.350026046694585
1687,24.23332761707276
1727,24.152550384304026
1767,22.919561818609968
1807,24.323292493877248
2,1, 7,21, 0, 8, 0.00,10.00,SummerDesignDay
8,13.978831900527043
10,97470852.35513428
813,27923388.326276274
2,1, 7,21, 0, 8,10.00,20.00,SummerDesignDay
8,14.110321014287419
10,94961395.04585397
813,47926322.184463057
2,1, 7,21, 0, 8,20.00,30.00,SummerDesignDay
8,14.241191509616986
10,94964083.52782682
813,1587464.7539875948
2,1, 7,21, 0, 8,30.00,40.00,SummerDesignDay
8,14.371447531304272
10,96900240.65209925
813,1616355.6509357342
2,1, 7,21, 0, 8,40.00,50.00,SummerDesignDay
8,14.501093766564925
10,93031536.71457599
813,12000.0
2,1, 7,21, 0, 8,50.00,60.00,SummerDesignDay
8,14.630134792273804
10,93032213.65458974
813,40402801.193015
2,1, 7,21, 0, 8, 0.00,60.00,SummerDesignDay
1047,21.044305730638699
1087,22.022703854833293
1127,23.050288230666714
1167,21.114777869631579
1207,22.871040790702396
1247,22.966833270949889
1287,22.557525821431257
1327,22.30812787315954
1367,23.297344735706905
1407,20.62913715917965
1447,23.025861179219988
1487,24.402957979346949
1527,22.83716446438129
1567,23.20173865163901
1607,22.655639581263264
1647,24.407926745854298
1687,24.298925583473495
1727,24.309014768700498
1767,23.669462099389454
1807,24.416237272879007
2,1, 7,21, 0, 9, 0.00,10.00,SummerDesignDay
8,14.773641492809972
10,163490709.91606108
813,1335652.3276256757
2,1, 7,21, 0, 9,10.00,20.00,SummerDesignDay
8,14.91640948124148
10,153934445.17943583
813,502410.16135557278
2,1, 7,21, 0, 9,20.00,30.00,SummerDesignDay
8,15.05843890714102
10,150619298.0055597
813,40674826.20958855
2,1, 7,21, 0, 9,30.00,40.00,SummerDesignDay
8,15.199735893563798
10,150041914.7279923
813,12000.0
2,1, 7,21, 0, 9,40.00,50.00,SummerDesignDay
8,15.340306256439395
10,151431743.25412626
813,12000.0
2,1, 7,21, 0, 9,50.00,60.00,SummerDesignDay
8,15.48015101768072
10,154164982.99618227
813,40645955.75894353
2,1, 7,21, 0, 9, 0.00,60.00,SummerDesignDay
1047,22.90610548298461
1087,23.4198905962317
1127,24.99263183382355
1167,23.25727169718378
1207,23.992892580665765
1247,23.29737460900603
1287,22.881257251005385
1327,22.896484706196764
1367,23.80355572802546
1407,20.583474706731605
1447,22.95465458317436
1487,23.998888223011649
1527,22.757128507951525
1567,23.167537698317728
1607,22.555279593715768
1647,24.021435520615527
1687,23.932748285907434
1727,23.577808244915379
1767,23.04323906692746
1807,23.893347471065856
2,1, 7,21, 0,10, 0.00,10.00,SummerDesignDay
8,15.60467292907716
10,288739982.8889238
813,118600174.13353442
2,1, 7,21, 0,10,10.00,20.00,SummerDesignDay
8,15.72862731650033
10,292044374.49360349
813,159209777.27544389
2,1, 7,21, 0,10,20.00,30.00,SummerDesignDay
8,15.852017409284228
10,299026213.39510926
813,106051712.49685681
2,1, 7,21, 0,10,30.00,40.00,SummerDesignDay
8,15.974848118364367
10,303285350.8325773
813,152733659.25379224
2,1, 7,21, 0,10,40.00,50.00,SummerDesignDay
8,16.097123145563505
10,306942232.9954552
813,152333284.7708029
2,1, 7,21, 0,10,50.00,60.00,SummerDesignDay
8,16.218846351168599
10,310823921.8453878
813,102862416.78688514
2,1, 7,21, 0,10, 0.00,60.00,SummerDesignDay
1047,23.997289042554188
1087,23.999582741924937
1127,26.92577187775593
1167,23.99948405713734
1207,25.190612773854615
1247,23.89439098415789
1287,23.566476328273258
1327,23.854247991106459
1367,23.999950534579189
1407,21.941149085102315
1447,23.822190939618407
1487,23.99933343704663
1527,23.56434108184462
1567,23.76844916708059
1607,23.53199414721624
1647,23.999956559236624
1687,23.918585737722095
1727,23.554561198356209
1767,23.54965053199783
1807,23.792699125837534
2,1, 7,21, 0,11, 0.00,10.00,SummerDesignDay
8,16.325793027093189
10,363681685.94778326
813,151462446.85728
2,1, 7,21, 0,11,10.00,20.00,SummerDesignDay
8,16.432322158488288
10,368362628.1214977
813,151069302.1985702
2,1, 7,21, 0,11,20.00,30.00,SummerDesignDay
8,16.538424180249178
10,372076459.86931708
813,119684804.0076622
2,1, 7,21, 0,11,30.00,40.00,SummerDesignDay
8,16.644108396469087
10,375445978.7098415
813,131945807.90250361
2,1, 7,21, 0,11,40.00,50.00,SummerDesignDay
8,16.749376736593655
10,378973720.85827317
813,150397232.5347329
2,1, 7,21, 0,11,50.00,60.00,SummerDesignDay
8,16.854232613237156
10,382388248.39496847
813,150260692.83088533
2,1, 7,21, 0,11, 0.00,60.00,SummerDesignDay
1047,23.998627777086126
1087,23.998915855380287
1127,28.34099645833324
1167,23.998452856790455
1207,26.232756227095299
1247,23.999878216689117
1287,23.9875223597703
1327,23.99983504321933
1367,23.9998488926999
1407,22.00104873523706
1447,23.9978978274486
1487,23.998031698230624
1527,23.998357841724937
1567,23.99845962915803
1607,23.997557776352719
1647,23.99991662888905
1687,23.93315021242508
1727,23.570638169379618
1767,23.669501760514267
1807,23.664475365960155
2,1, 7,21, 0,12, 0.00,10.00,SummerDesignDay
8,16.92390823520069
10,436421862.0768083
813,91424328.46692291
2,1, 7,21, 0,12,10.00,20.00,SummerDesignDay
8,16.99340178950456
10,437526252.07239118
813,45924440.56433475
2,1, 7,21, 0,12,20.00,30.00,SummerDesignDay
8,17.06272006743463
10,440467204.47120866
813,91085008.3120504
2,1, 7,21, 0,12,30.00,40.00,SummerDesignDay
8,17.131853229172639
10,443314566.35647669
813,91077065.64645908
2,1, 7,21, 0,12,40.00,50.00,SummerDesignDay
8,17.200807172194087
10,446119505.04359468
813,91074609.35117933
2,1, 7,21, 0,12,50.00,60.00,SummerDesignDay
8,17.269582116758607
10,448859070.8235762
813,91072306.51598665
2,1, 7,21, 0,12, 0.00,60.00,SummerDesignDay
1047,23.998349706137814
1087,23.998738326206408
1127,29.264649252887286
1167,23.99785214076374
1207,27.080949899329587
1247,23.99977814457182
1287,23.99968441593504
1327,23.99972101435115
1367,23.99975334589996
1407,22.06459192580672
1447,23.997156075345037
1487,23.99750753030062
1527,23.997310775644427
1567,23.997549242983998
1607,23.997308556463897
1647,23.999914860819986
1687,23.93942603750969
1727,23.63849747352324
1767,23.60894069769375
1807,23.56102851790848
2,1, 7,21, 0,13, 0.00,10.00,SummerDesignDay
8,17.32447360221357
10,467880300.40966388
813,94987814.98277438
2,1, 7,21, 0,13,10.00,20.00,SummerDesignDay
8,17.379251291230806
10,472087197.5621479
813,137060364.56022559
2,1, 7,21, 0,13,20.00,30.00,SummerDesignDay
8,17.433921312061729
10,474922650.6814267
813,101554880.10623333
2,1, 7,21, 0,13,30.00,40.00,SummerDesignDay
8,17.488473222557489
10,477639119.8209445
813,95441449.67542143
2,1, 7,21, 0,13,40.00,50.00,SummerDesignDay
8,17.542913447755134
10,480201985.109033
813,143219030.42931215
2,1, 7,21, 0,13,50.00,60.00,SummerDesignDay
8,17.59724609886134
10,482663954.55945327
813,95391373.14795986
2,1, 7,21, 0,13, 0.00,60.00,SummerDesignDay
1047,23.997765343861919
1087,23.998979247033817
1127,30.064582930839248
1167,23.996604397313175
1207,27.898723988425066
1247,23.999671060500547
1287,23.999524000344537
1327,23.99962735796709
1367,23.999602140305059
1407,22.77843191925653
1447,23.99656316981962
1487,23.996741518363995
1527,23.996286268528505
1567,23.996474455132128
1607,23.99660229520318
1647,23.999931616628844
1687,23.939211340861165
1727,23.74664082275754
1767,23.618660411942256
1807,23.51662143776711
2,1, 7,21, 0,14, 0.00,10.00,SummerDesignDay
8,17.6311450462694
10,479711158.0639903
813,139249018.33761329
2,1, 7,21, 0,14,10.00,20.00,SummerDesignDay
8,17.665000449016245
10,482590977.5343585
813,106595359.949661
2,1, 7,21, 0,14,20.00,30.00,SummerDesignDay
8,17.698812743128934
10,484176272.91835919
813,147808685.22474633
2,1, 7,21, 0,14,30.00,40.00,SummerDesignDay
8,17.732582050940107
10,485781814.09730526
813,113023892.58610444
2,1, 7,21, 0,14,40.00,50.00,SummerDesignDay
8,17.766307345121004
10,487322613.31147626
813,133292753.4839266
2,1, 7,21, 0,14,50.00,60.00,SummerDesignDay
8,17.79999023167558
10,488891186.4895391
813,147805812.25771187
2,1, 7,21, 0,14, 0.00,60.00,SummerDesignDay
1047,23.997186286157896
1087,23.99914541260244
1127,30.69851506238604
1167,23.995523391420944
1207,28.54355855024893
1247,23.999562150110774
1287,23.99937458185578
1327,23.999537791173809
1367,23.99951825311742
1407,22.95134220293407
1447,23.996269974080918
1487,23.99635966701729
1527,23.996166366413545
1567,23.996304572290869
1607,23.996245755259669
1647,23.999947520708916
1687,23.931604969712948
1727,23.80291218543952
1767,23.704793606695774
1807,23.50748369018598
2,1, 7,21, 0,15, 0.00,10.00,SummerDesignDay
8,17.79999023167558
10,523407856.3751212
813,98570872.2280954
2,1, 7,21, 0,15,10.00,20.00,SummerDesignDay
8,17.79999023167558
10,509933220.943494
813,147871565.5058065
2,1, 7,21, 0,15,20.00,30.00,SummerDesignDay
8,17.79999023167558
10,501981990.76835027
813,147793740.32374669
2,1, 7,21, 0,15,30.00,40.00,SummerDesignDay
8,17.79999023167558
10,510828000.6468212
813,98485269.91140522
2,1, 7,21, 0,15,40.00,50.00,SummerDesignDay
8,17.79999023167558
10,507191002.1525093
813,147811499.6559354
2,1, 7,21, 0,15,50.00,60.00,SummerDesignDay
8,17.79999023167558
10,506782209.8087675
813,126216740.2197766
2,1, 7,21, 0,15, 0.00,60.00,SummerDesignDay
1047,23.998468019184405
1087,23.999353255219196
1127,24.470485174863329
1167,23.99699306866088
1207,24.260050944612684
1247,23.999660385498119
1287,23.999514154481309
1327,23.999676506735655
1367,23.999672535195346
1407,22.894158178191945
1447,23.99785479705587
1487,23.99788582563102
1527,23.99780656299549
1567,23.997889914300747
1607,23.99774893910579
1647,23.999973401515878
1687,23.919699006973116
1727,23.742771877984898
1767,24.044284941098778
1807,23.510477985044078
2,1, 7,21, 0,16, 0.00,10.00,SummerDesignDay
8,17.759562446305357
10,514806842.0506204
813,113740336.49424538
2,1, 7,21, 0,16,10.00,20.00,SummerDesignDay
8,17.71907809634183
10,511398192.07432588
813,92733876.54330154
2,1, 7,21, 0,16,20.00,30.00,SummerDesignDay
8,17.67853788661001
10,509461570.1473695
813,92742433.89380756
2,1, 7,21, 0,16,30.00,40.00,SummerDesignDay
8,17.63791796367351
10,507511091.55544587
813,92750530.70545449
2,1, 7,21, 0,16,40.00,50.00,SummerDesignDay
8,17.59724609886134
10,505513288.9027945
813,92758527.18992454
2,1, 7,21, 0,16,50.00,60.00,SummerDesignDay
8,17.55650676726033
10,503472817.54207679
813,92766477.81442134
2,1, 7,21, 0,16, 0.00,60.00,SummerDesignDay
1047,23.998460401772605
1087,23.99909246121393
1127,23.999884535967298
1167,23.99580431123482
1207,23.99983475973578
1247,23.999505853861064
1287,23.999287490920293
1327,23.999538686797029
1367,23.999533229642848
1407,22.90203147196226
1447,23.997706474120674
1487,23.997729022016427
1527,23.997722713714749
1567,23.997825497695997
1607,23.997567718350849
1647,23.99996140274112
1687,23.907352278306975
1727,23.582431226457943
1767,24.43633412274515
1807,23.51885887377723
2,1, 7,21, 0,17, 0.00,10.00,SummerDesignDay
8,17.50209486331892
10,501697623.5507105
813,89501233.81050578
2,1, 7,21, 0,17,10.00,20.00,SummerDesignDay
8,17.447570789624618
10,498041314.4414077
813,44549216.28773564
2,1, 7,21, 0,17,20.00,30.00,SummerDesignDay
8,17.392929544208135
10,495481554.1496529
813,89127031.84101515
2,1, 7,21, 0,17,30.00,40.00,SummerDesignDay
8,17.33818013976614
10,493075680.1930829
813,70825157.04865925
2,1, 7,21, 0,17,40.00,50.00,SummerDesignDay
8,17.283317298559309
10,490663111.53275588
813,62862067.79943766
2,1, 7,21, 0,17,50.00,60.00,SummerDesignDay
8,17.22833552437677
10,488261836.98379269
813,89133144.86487143
2,1, 7,21, 0,17, 0.00,60.00,SummerDesignDay
1047,23.999133595338109
1087,23.99914833099042
1127,23.999693933410247
1167,23.996027191328627
1207,23.99974285669857
1247,23.999498129845806
1287,23.999265341435984
1327,23.999529023106537
1367,23.999496851199159
1407,23.167138706171629
1447,23.998339797912437
1487,23.998364656830164
1527,23.99814047479705
1567,23.99820217924582
1607,23.99832310779691
1647,23.999943096132488
1687,23.89850394635816
1727,23.423751007768357
1767,24.384864490278884
1807,23.523944805797794
2,1, 7,21, 0,18, 0.00,10.00,SummerDesignDay
8,17.159453019160176
10,486273595.90216776
813,44154198.0314967
2,1, 7,21, 0,18,10.00,20.00,SummerDesignDay
8,17.090391773337136
10,483011456.0847357
813,88242315.74828121
2,1, 7,21, 0,18,20.00,30.00,SummerDesignDay
8,17.021151077964786
10,480016930.8155441
813,44109737.67574095
2,1, 7,21, 0,18,30.00,40.00,SummerDesignDay
8,16.951729380464653
10,477088759.11649158
813,88242696.34567
2,1, 7,21, 0,18,40.00,50.00,SummerDesignDay
8,16.882126503829249
10,474205660.3255828
813,44109569.36261136
2,1, 7,21, 0,18,50.00,60.00,SummerDesignDay
8,16.812341807494034
10,471272996.5175481
813,88242858.77109985
2,1, 7,21, 0,18, 0.00,60.00,SummerDesignDay
1047,23.999186862920316
1087,23.999348045050615
1127,23.99968094102236
1167,23.996833457923676
1207,23.99962282009139
1247,23.999530514195297
1287,23.999306338265943
1327,23.999557134966069
1367,23.999541262184779
1407,23.526372065453104
1447,23.998475847336207
1487,23.998536031322574
1527,23.998254350961707
1567,23.998309858500993
1607,23.998539431492316
1647,23.999909227344675
1687,23.892932059191069
1727,23.32579076066733
1767,23.92781999171049
1807,23.52604308891493
2,1, 7,21, 0,19, 0.00,10.00,SummerDesignDay
8,16.707321072823203
10,487716915.4780445
813,83717811.29624836
2,1, 7,21, 0,19,10.00,20.00,SummerDesignDay
8,16.601881826644556
10,485130845.67731198
813,51896430.555658999
2,1, 7,21, 0,19,20.00,30.00,SummerDesignDay
8,16.496030555252849
10,482195144.7019051
813,90563937.5638367
2,1, 7,21, 0,19,30.00,40.00,SummerDesignDay
8,16.389760181474104
10,478220005.7817782
813,90562708.5519981
2,1, 7,21, 0,19,40.00,50.00,SummerDesignDay
8,16.283067654262039
10,474628705.01082649
813,90565915.08553341
2,1, 7,21, 0,19,50.00,60.00,SummerDesignDay
8,16.17595057957811
10,470935495.2360355
813,90568797.21421863
2,1, 7,21, 0,19, 0.00,60.00,SummerDesignDay
1047,23.998954750884907
1087,23.99949965641512
1127,23.999215171808328
1167,23.9980609483088
1207,23.99893479520553
1247,23.99960903238083
1287,23.999421466205349
1327,23.999642483925684
1367,23.999576670457743
1407,23.957678369429077
1447,23.997787111518517
1487,23.99782607560755
1527,23.99763517886078
1567,23.997655902466467
1607,23.997821868632767
1647,23.999858536728554
1687,23.88910531491346
1727,23.23145484635256
1767,23.17812343726018
1807,23.522283444414059
2,1, 7,21, 0,20, 0.00,10.00,SummerDesignDay
8,16.097123145563505
10,455610290.5087378
813,93237488.61179553
2,1, 7,21, 0,20,10.00,20.00,SummerDesignDay
8,16.018070242471564
10,453838562.33815506
813,93556042.8510498
2,1, 7,21, 0,20,20.00,30.00,SummerDesignDay
8,15.938779752340516
10,451315052.68622449
813,93578676.7247254
2,1, 7,21, 0,20,30.00,40.00,SummerDesignDay
8,15.85926152575189
10,448541069.4616374
813,93602604.48508728
2,1, 7,21, 0,20,40.00,50.00,SummerDesignDay
8,15.779503718563929
10,449490699.26777157
813,93626392.9293958
2,1, 7,21, 0,20,50.00,60.00,SummerDesignDay
8,15.699515709672767
10,446409833.71946957
813,118610376.78768175
2,1, 7,21, 0,20, 0.00,60.00,SummerDesignDay
1047,23.99855293351114
1087,23.392196328069969
1127,23.998100867691308
1167,23.99908332141955
1207,23.99728813192132
1247,23.99972739729471
1287,23.99961008090516
1327,23.99976850622187
1367,23.999720343817093
1407,23.997729591189314
1447,23.996695279577666
1487,23.996725470763577
1527,23.99656938303902
1567,23.996548234434653
1607,23.99678703456344
1647,23.999806067478017
1687,23.8826185160102
1727,23.1296271506009
1767,22.271974596191048
1807,23.5116182388841
2,1, 7,21, 0,21, 0.00,10.00,SummerDesignDay
8,15.63389147320404
10,433400149.94355037
813,133379197.28100811
2,1, 7,21, 0,21,10.00,20.00,SummerDesignDay
8,15.56810827419793
10,434784449.79098466
813,153906064.57073737
2,1, 7,21, 0,21,20.00,30.00,SummerDesignDay
8,15.502170882753524
10,431355729.0718325
813,158933841.8466861
2,1, 7,21, 0,21,30.00,40.00,SummerDesignDay
8,15.436068032613852
10,428282938.8791789
813,162344417.39417703
2,1, 7,21, 0,21,40.00,50.00,SummerDesignDay
8,15.369804371206009
10,425291589.42406246
813,163890692.281575
2,1, 7,21, 0,21,50.00,60.00,SummerDesignDay
8,15.303384603594449
10,422224291.9046607
813,165373886.1896816
2,1, 7,21, 0,21, 0.00,60.00,SummerDesignDay
1047,23.998326303667274
1087,22.652964526497585
1127,23.99774519906607
1167,23.999509775663694
1207,23.996560128602409
1247,23.999799226830903
1287,23.999696139610266
1327,23.999823898115947
1367,23.999797470555735
1407,23.990182608661475
1447,23.9960734353493
1487,23.99616606981931
1527,23.99602387669817
1567,23.99613922167533
1607,23.996274172441106
1647,23.999789662000109
1687,23.868908612918813
1727,23.030951201929715
1767,22.00023318114086
1807,23.495144179986938
2,1, 7,21, 0,22, 0.00,10.00,SummerDesignDay
8,15.236797685071274
10,369779328.9766656
813,165241034.8266978
2,1, 7,21, 0,22,10.00,20.00,SummerDesignDay
8,15.170047891787942
10,367806616.7579073
813,165564315.05007804
2,1, 7,21, 0,22,20.00,30.00,SummerDesignDay
8,15.103134826860483
10,366267809.4631141
813,165993386.55354897
2,1, 7,21, 0,22,30.00,40.00,SummerDesignDay
8,15.036063385178485
10,364288857.42854639
813,166322658.0124314
2,1, 7,21, 0,22,40.00,50.00,SummerDesignDay