Program Version,EnergyPlus, Version 8.9.0-eba93e8e1b, YMD=2019.03.28 14:11
1,5,Environment Title[],Latitude[deg],Longitude[deg],Time Zone[],Elevation[m]
2,8,Day of Simulation[],Month[],Day of Month[],DST Indicator[1=yes 0=no],Hour[],StartMinute[],EndMinute[],DayType
3,5,Cumulative Day of Simulation[],Month[],Day of Month[],DST Indicator[1=yes 0=no],DayType  ! When Daily Report Variables Requested
4,2,Cumulative Days of Simulation[],Month[]  ! When Monthly Report Variables Requested
5,1,Cumulative Days of Simulation[] ! When Run Period Report Variables Requested
6,1,Calendar Year of Simulation[] ! When Annual Report Variables Requested
7,9,Environment,Site Outdoor Air Drybulb Temperature [C] !Monthly [Value,Min,Day,Hour,Minute,Max,Day,Hour,Minute]
8,1,Environment,Site Outdoor Air Wetbulb Temperature [C] !TimeStep
1112,1,SP-ATRIUM (6 =< HEIGHT <= 12M)-SCH-A-SPACE FUNCTION SYS-6 FLR-1 SCH-A HPLCMT-EAST ZN,Zone Air Temperature [C] !Hourly
1113,7,SP-ATRIUM (6 =< HEIGHT <= 12M)-SCH-A-SPACE FUNCTION SYS-6 FLR-1 SCH-A HPLCMT-EAST ZN,Zone Air Relative Humidity [%] !Daily [Value,Min,Hour,Minute,Max,Hour,Minute]
1152,1,SP-ATRIUM (6 =< HEIGHT <= 12M)-SCH-B-SPACE FUNCTION SYS-6 FLR-2 SCH-B HPLCMT-WEST ZN,Zone Air Temperature [C] !Hourly
1153,7,SP-ATRIUM (6 =< HEIGHT <= 12M)-SCH-B-SPACE FUNCTION SYS-6 FLR-2 SCH-B HPLCMT-WEST ZN,Zone Air Relative Humidity [%] !Daily [Value,Min,Hour,Minute,Max,Hour,Minute]
1192,1,SP-ATRIUM (6 =< HEIGHT <= 12M)-SCH-C-SPACE FUNCTION SYS-6 FLR-3 SCH-C HPLCMT-WEST ZN,Zone Air Temperature [C] !Hourly
1193,7,SP-ATRIUM (6 =< HEIGHT <= 12M)-SCH-C-SPACE FUNCTION SYS-6 FLR-3 SCH-C HPLCMT-WEST ZN,Zone Air Relative Humidity [%] !Daily [Value,Min,Hour,Minute,Max,Hour,Minute]
1232,1,SP-ATRIUM (6 =< HEIGHT <= 12M)-SCH-D-SPACE FUNCTION SYS-6 FLR-1 SCH-D HPLCMT-CORE ZN,Zone Air Temperature [C] !Hourly
1233,7,SP-ATRIUM (6 =< HEIGHT <= 12M)-SCH-D-SPACE FUNCTION SYS-6 FLR-1 SCH-D HPLCMT-CORE ZN,Zone Air Relative Humidity [%] !Daily [Value,Min,Hour,Minute,Max,Hour,Minute]
1272,1,SP-ATRIUM (6 =< HEIGHT <= 12M)-SCH-E-SPACE FUNCTION SYS-6 FLR-2 SCH-E HPLCMT-NORTH ZN,Zone Air Temperature [C] !Hourly
1273,7,SP-ATRIUM (6 =< HEIGHT <= 12M)-SCH-E-SPACE FUNCTION SYS-6 FLR-2 SCH-E HPLCMT-NORTH ZN,Zone Air Relative Humidity [%] !Daily [Value,Min,Hour,Minute,Max,Hour,Minute]
1312,1,SP-ATRIUM (6 =< HEIGHT <= 12M)-SCH-F-SPACE FUNCTION SYS-6 FLR-2 SCH-F HPLCMT-EAST ZN,Zone Air Temperature [C] !Hourly
1313,7,SP-ATRIUM (6 =< HEIGHT <= 12M)-SCH-F-SPACE FUNCTION SYS-6 FLR-2 SCH-F HPLCMT-EAST ZN,Zone Air Relative Humidity [%] !Daily [Value,Min,Hour,Minute,Max,Hour,Minute]
1352,1,SP-WHOLEBUILDING-OFFICE SYS-6 FLR-4 SCH-A HPLCMT-SOUTH ZN,Zone Air Temperature [C] !Hourly
1353,7,SP-WHOLEBUILDING-OFFICE SYS-6 FLR-4 SCH-A HPLCMT-SOUTH ZN,Zone Air Relative Humidity [%] !Daily [Value,Min,Hour,Minute,Max,Hour,Minute]
1392,1,SP-WHOLEBUILDING-PENITENTIARY SYS-3 FLR-3 SCH-H HPLCMT-CORE ZN,Zone Air Temperature [C] !Hourly
1393,7,SP-WHOLEBUILDING-PENITENTIARY SYS-3 FLR-3 SCH-H HPLCMT-CORE ZN,Zone Air Relative Humidity [%] !Daily [Value,Min,Hour,Minute,Max,Hour,Minute]
1432,1,SP-WHOLEBUILDING-PERFORMING ARTS THEATRE SYS-3 FLR-3 SCH-C HPLCMT-EAST ZN,Zone Air Temperature [C] !Hourly
1433,7,SP-WHOLEBUILDING-PERFORMING ARTS THEATRE SYS-3 FLR-3 SCH-C HPLCMT-EAST ZN,Zone Air Relative Humidity [%] !Daily [Value,Min,Hour,Minute,Max,Hour,Minute]
1472,1,SP-WHOLEBUILDING-POLICE STATION SYS-3 FLR-3 SCH-H HPLCMT-NORTH ZN,Zone Air Temperature [C] !Hourly
1473,7,SP-WHOLEBUILDING-POLICE STATION SYS-3 FLR-3 SCH-H HPLCMT-NORTH ZN,Zone Air Relative Humidity [%] !Daily [Value,Min,Hour,Minute,Max,Hour,Minute]
1512,1,SP-WHOLEBUILDING-POST OFFICE SYS-6 FLR-1 SCH-A HPLCMT-WEST ZN,Zone Air Temperature [C] !Hourly
1513,7,SP-WHOLEBUILDING-POST OFFICE SYS-6 FLR-1 SCH-A HPLCMT-WEST ZN,Zone Air Relative Humidity [%] !Daily [Value,Min,Hour,Minute,Max,Hour,Minute]
1552,1,SP-WHOLEBUILDING-RELIGIOUS BUILDING SYS-3 FLR-4 SCH-I HPLCMT-CORE ZN,Zone Air Temperature [C] !Hourly
1553,7,SP-WHOLEBUILDING-RELIGIOUS BUILDING SYS-3 FLR-4 SCH-I HPLCMT-CORE ZN,Zone Air Relative Humidity [%] !Daily [Value,Min,Hour,Minute,Max,Hour,Minute]
1592,1,SP-WHOLEBUILDING-RETAIL AREA SYS-6 FLR-3 SCH-C HPLCMT-SOUTH ZN,Zone Air Temperature [C] !Hourly
1593,7,SP-WHOLEBUILDING-RETAIL AREA SYS-6 FLR-3 SCH-C HPLCMT-SOUTH ZN,Zone Air Relative Humidity [%] !Daily [Value,Min,Hour,Minute,Max,Hour,Minute]
1632,1,SP-WHOLEBUILDING-SCHOOL/UNIVERSITY SYS-3 FLR-2 SCH-D HPLCMT-SOUTH ZN,Zone Air Temperature [C] !Hourly
1633,7,SP-WHOLEBUILDING-SCHOOL/UNIVERSITY SYS-3 FLR-2 SCH-D HPLCMT-SOUTH ZN,Zone Air Relative Humidity [%] !Daily [Value,Min,Hour,Minute,Max,Hour,Minute]
1672,1,SP-WHOLEBUILDING-SPORTS ARENA SYS-6 FLR-1 SCH-B HPLCMT-NORTH ZN,Zone Air Temperature [C] !Hourly
1673,7,SP-WHOLEBUILDING-SPORTS ARENA SYS-6 FLR-1 SCH-B HPLCMT-NORTH ZN,Zone Air Relative Humidity [%] !Daily [Value,Min,Hour,Minute,Max,Hour,Minute]
1712,1,SP-WHOLEBUILDING-STORAGE GARAGE SYS-4 FLR-4 SCH-K HPLCMT-WEST ZN,Zone Air Temperature [C] !Hourly
1713,7,SP-WHOLEBUILDING-STORAGE GARAGE SYS-4 FLR-4 SCH-K HPLCMT-WEST ZN,Zone Air Relative Humidity [%] !Daily [Value,Min,Hour,Minute,Max,Hour,Minute]
1752,1,SP-WHOLEBUILDING-TOWN HALL SYS-3 FLR-2 SCH-D HPLCMT-CORE ZN,Zone Air Temperature [C] !Hourly
1753,7,SP-WHOLEBUILDING-TOWN HALL SYS-3 FLR-2 SCH-D HPLCMT-CORE ZN,Zone Air Relative Humidity [%] !Daily [Value,Min,Hour,Minute,Max,Hour,Minute]
1792,1,SP-WHOLEBUILDING-TRANSPORTATION FACILITY SYS-6 FLR-4 SCH-H HPLCMT-EAST ZN,Zone Air Temperature [C] !Hourly
1793,7,SP-WHOLEBUILDING-TRANSPORTATION FACILITY SYS-6 FLR-4 SCH-H HPLCMT-EAST ZN,Zone Air Relative Humidity [%] !Daily [Value,Min,Hour,Minute,Max,Hour,Minute]
1832,1,SP-WHOLEBUILDING-WAREHOUSE SYS-4 FLR-4 SCH-A HPLCMT-NORTH ZN,Zone Air Temperature [C] !Hourly
1833,7,SP-WHOLEBUILDING-WAREHOUSE SYS-4 FLR-4 SCH-A HPLCMT-NORTH ZN,Zone Air Relative Humidity [%] !Daily [Value,Min,Hour,Minute,Max,Hour,Minute]
1872,1,SP-WHOLEBUILDING-WORKSHOP SYS-3 FLR-1 SCH-A HPLCMT-SOUTH ZN,Zone Air Temperature [C] !Hourly
1873,7,SP-WHOLEBUILDING-WORKSHOP SYS-3 FLR-1 SCH-A HPLCMT-SOUTH ZN,Zone Air Relative Humidity [%] !Daily [Value,Min,Hour,Minute,Max,Hour,Minute]
10,1,Electricity:Facility [J] !TimeStep
878,1,Gas:Facility [J] !TimeStep
End of Data Dictionary
1,FORT MCMURRAY AP ANN CLG .4% CONDNS DB=>MWB,  56.65,-111.22,  -7.00, 369.10
2,1, 7,21, 0, 1, 0.00,10.00,SummerDesignDay
8,14.218136923962174
10,125215980.56155442
878,40651196.13135863
2,1, 7,21, 0, 1,10.00,20.00,SummerDesignDay
8,14.171982153293495
10,125045648.84450232
878,39402068.66873587
2,1, 7,21, 0, 1,20.00,30.00,SummerDesignDay
8,14.125744780286427
10,124945116.85411088
878,39272676.949671838
2,1, 7,21, 0, 1,30.00,40.00,SummerDesignDay
8,14.079436086331978
10,124846382.28411176
878,39888434.84256163
2,1, 7,21, 0, 1,40.00,50.00,SummerDesignDay
8,14.033050387896898
10,124748021.70133235
878,52898836.91793426
2,1, 7,21, 0, 1,50.00,60.00,SummerDesignDay
8,13.986581233564835
10,124648309.84688626
878,52913661.597447898
2,1, 7,21, 0, 1, 0.00,60.00,SummerDesignDay
1112,23.582638580982367
1152,23.99946809249734
1192,23.370051527859017
1232,23.560244540253167
1272,23.945167006879897
1312,23.99929365501507
1352,21.304527931720285
1392,23.99624578913407
1432,24.886886489421639
1472,23.998449686073007
1512,23.774521107831914
1552,24.248465996940835
1592,23.669614772440427
1632,24.36587052978071
1672,23.998336940936829
1712,20.894828762692769
1752,24.573994909563507
1792,23.98037798317635
1832,24.124070872260075
1872,23.556061367287016
2,1, 7,21, 0, 2, 0.00,10.00,SummerDesignDay
8,13.95555882260429
10,110441762.17225026
878,51522035.71864018
2,1, 7,21, 0, 2,10.00,20.00,SummerDesignDay
8,13.924507755336454
10,110366157.14675483
878,52021344.87327089
2,1, 7,21, 0, 2,20.00,30.00,SummerDesignDay
8,13.893416042989206
10,110287856.26219984
878,52204090.531888898
2,1, 7,21, 0, 2,30.00,40.00,SummerDesignDay
8,13.862289589689029
10,110207909.04417536
878,46129058.14419499
2,1, 7,21, 0, 2,40.00,50.00,SummerDesignDay
8,13.831134407608739
10,110126864.47437142
878,35641847.082647297
2,1, 7,21, 0, 2,50.00,60.00,SummerDesignDay
8,13.799938415548118
10,110047590.01158478
878,34952270.23361424
2,1, 7,21, 0, 2, 0.00,60.00,SummerDesignDay
1112,23.528724774491495
1152,23.906588251214996
1192,23.218787254350599
1232,23.505075966300088
1272,23.90121740905236
1312,23.999251405396966
1352,21.066018078123116
1392,23.996332522956789
1432,24.670337374200995
1472,23.998496933301934
1512,23.70645637738383
1552,23.539519981921094
1592,23.498041274998938
1632,24.154981421470578
1672,24.379780376642356
1712,20.38005741140272
1752,24.467571103538849
1792,23.86126098766178
1832,23.842442627097058
1872,23.30118992637553
2,1, 7,21, 0, 3, 0.00,10.00,SummerDesignDay
8,13.776521671948676
10,103693779.7672848
878,35977254.219403099
2,1, 7,21, 0, 3,10.00,20.00,SummerDesignDay
8,13.753085235778466
10,103623882.13315621
878,47518708.28055588
2,1, 7,21, 0, 3,20.00,30.00,SummerDesignDay
8,13.729636002354969
10,103547224.99473404
878,47583839.56692309
2,1, 7,21, 0, 3,30.00,40.00,SummerDesignDay
8,13.706147375533054
10,103467955.75274013
878,47656513.51146873
2,1, 7,21, 0, 3,40.00,50.00,SummerDesignDay
8,13.682651961920304
10,103388288.60408034
878,29282506.060188448
2,1, 7,21, 0, 3,50.00,60.00,SummerDesignDay
8,13.659136670643687
10,103311020.02292417
878,20573201.015143847
2,1, 7,21, 0, 3, 0.00,60.00,SummerDesignDay
1112,23.479654414560867
1152,23.56940018141218
1192,23.06272478099884
1232,23.459717642214696
1272,23.853226260351474
1312,23.9992113353041
1352,20.84642315683935
1392,23.996444276315349
1432,24.48852934374796
1472,23.998542346579158
1512,23.63980964334925
1552,22.844571162746545
1592,23.329638104992936
1632,23.961945628301569
1672,23.954099232931683
1712,19.984662494975685
1752,24.362901566348808
1792,23.710944461285739
1832,23.59283924453517
1872,23.100489343057189
2,1, 7,21, 0, 4, 0.00,10.00,SummerDesignDay
8,13.63560137410855
10,102948038.295696
878,45290707.83785468
2,1, 7,21, 0, 4,10.00,20.00,SummerDesignDay
8,13.612040802606578
10,102875250.71579497
878,47540816.13936462
2,1, 7,21, 0, 4,20.00,30.00,SummerDesignDay
8,13.58846620506876
10,102795896.8644035
878,47612266.75490878
2,1, 7,21, 0, 4,30.00,40.00,SummerDesignDay
8,13.56487178447336
10,102715528.66650634
878,45369218.99932384
2,1, 7,21, 0, 4,40.00,50.00,SummerDesignDay
8,13.541257354069103
10,102635293.31152213
878,21021364.846724549
2,1, 7,21, 0, 4,50.00,60.00,SummerDesignDay
8,13.517617463812285
10,102561423.8116957
878,28866634.229182338
2,1, 7,21, 0, 4, 0.00,60.00,SummerDesignDay
1112,23.428476083545964
1152,23.371916803489005
1192,22.901217123155037
1232,23.411962451608145
1272,23.795851073667526
1312,23.999198975521908
1352,20.64929269135757
1392,23.99656615922379
1432,24.32264117147635
1472,23.998584017552035
1512,23.566130869977426
1552,22.51452162598451
1592,23.163279557525688
1632,23.781151897584679
1672,23.57087580694886
1712,19.64822768212024
1752,24.266249517511679
1792,23.570208959833196
1832,23.376223501584076
1872,22.921902738898266
2,1, 7,21, 0, 5, 0.00,10.00,SummerDesignDay
8,13.50185415824011
10,102500811.29145333
878,47509437.23854824
2,1, 7,21, 0, 5,10.00,20.00,SummerDesignDay
8,13.486076034032447
10,102547404.28865184
878,47568595.59937341
2,1, 7,21, 0, 5,20.00,30.00,SummerDesignDay
8,13.470289340350983
10,102586013.53735507
878,47641039.728321637
2,1, 7,21, 0, 5,30.00,40.00,SummerDesignDay
8,13.454493322631063
10,102631570.91499268
878,34937266.01037599
2,1, 7,21, 0, 5,40.00,50.00,SummerDesignDay
8,13.438688835118548
10,102678076.91576588
878,20742152.34335542
2,1, 7,21, 0, 5,50.00,60.00,SummerDesignDay
8,13.422888173889437
10,102810253.58128737
878,39506733.573758859
2,1, 7,21, 0, 5, 0.00,60.00,SummerDesignDay
1112,23.379619317010705
1152,23.25907743097613
1192,22.74464453505816
1232,23.365282640592047
1272,23.800684544565177
1312,23.999122060409765
1352,20.51948354410902
1392,23.99668138195803
1432,24.267691495610877
1472,23.99854480964798
1512,23.490786325731695
1552,22.308185701776535
1592,23.006721061884787
1632,23.61508018565753
1672,23.467341953617788
1712,19.36811927193456
1752,24.175907498229504
1792,23.692404958196449
1832,23.350904609161259
1872,22.755820788145696
2,1, 7,21, 0, 6, 0.00,10.00,SummerDesignDay
8,13.438688835118548
10,103087422.16883032
878,47527819.12794688
2,1, 7,21, 0, 6,10.00,20.00,SummerDesignDay
8,13.454493322631063
10,103133275.84878382
878,47596880.79594546
2,1, 7,21, 0, 6,20.00,30.00,SummerDesignDay
8,13.470289340350983
10,103291170.50622037
878,47669714.06726625
2,1, 7,21, 0, 6,30.00,40.00,SummerDesignDay
8,13.486076034032447
10,103420583.87449195
878,24425268.82893959
2,1, 7,21, 0, 6,40.00,50.00,SummerDesignDay
8,13.50185415824011
10,103553882.56528525
878,23188979.183802155
2,1, 7,21, 0, 6,50.00,60.00,SummerDesignDay
8,13.517617463812285
10,103699629.19173296
878,47502542.377324
2,1, 7,21, 0, 6, 0.00,60.00,SummerDesignDay
1112,23.345318884491154
1152,23.176448499336418
1192,22.613666986733838
1232,23.32051735360918
1272,23.88019393615407
1312,23.998979887408014
1352,20.595264403862776
1392,23.99677154522429
1432,24.649694210187009
1472,23.998507002228334
1512,23.417224356746716
1552,22.330988695766285
1592,22.882452466165846
1632,23.51799298147144
1672,23.395070944785187
1712,19.328359290094168
1752,24.122319917419813
1792,23.99843039811265
1832,23.735751873914599
1872,22.656798088360885
2,1, 7,21, 0, 7, 0.00,10.00,SummerDesignDay
8,13.572736920571789
10,104193740.78919359
878,47553485.17245325
2,1, 7,21, 0, 7,10.00,20.00,SummerDesignDay
8,13.627748229152554
10,104391476.10259326
878,47625531.545639049
2,1, 7,21, 0, 7,20.00,30.00,SummerDesignDay
8,13.682651961920304
10,104597772.66301501
878,40569892.34620048
2,1, 7,21, 0, 7,30.00,40.00,SummerDesignDay
8,13.737448093244995
10,105074201.25197943
878,20898042.88295571
2,1, 7,21, 0, 7,40.00,50.00,SummerDesignDay
8,13.792137011831216
10,105444623.93048582
878,33758869.4527888
2,1, 7,21, 0, 7,50.00,60.00,SummerDesignDay
8,13.846719282840333
10,105776760.2050566
878,47516999.74325143
2,1, 7,21, 0, 7, 0.00,60.00,SummerDesignDay
1112,23.3430199342102
1152,23.107935802376337
1192,22.502806852976677
1232,23.27766887570361
1272,23.80722892350724
1312,23.998902165570219
1352,20.845860547680354
1392,23.996837063647779
1432,25.211922114573289
1472,23.998573129086187
1512,23.346463503382429
1552,22.642969293741805
1592,22.789163530667027
1632,23.535623939473465
1672,23.337185341625618
1712,19.68210692895075
1752,24.139372160051875
1792,23.998500055405246
1832,23.96448087896407
1872,22.70191911685032
2,1, 7,21, 0, 8, 0.00,10.00,SummerDesignDay
8,13.978831900527043
10,128188935.79024601
878,60202562.770408768
2,1, 7,21, 0, 8,10.00,20.00,SummerDesignDay
8,14.110321014287419
10,126501672.15621276
878,55536750.875771168
2,1, 7,21, 0, 8,20.00,30.00,SummerDesignDay
8,14.241191509616986
10,128869299.89400329
878,35298199.70016946
2,1, 7,21, 0, 8,30.00,40.00,SummerDesignDay
8,14.371447531304272
10,126708150.89186523
878,22791609.002388505
2,1, 7,21, 0, 8,40.00,50.00,SummerDesignDay
8,14.501093766564925
10,128135422.1527073
878,39822201.97219543
2,1, 7,21, 0, 8,50.00,60.00,SummerDesignDay
8,14.630134792273804
10,129103780.45074661
878,47983060.49266491
2,1, 7,21, 0, 8, 0.00,60.00,SummerDesignDay
1112,23.508609741367896
1152,23.059655235692316
1192,22.428042041121036
1232,23.24420321867916
1272,23.781302891953059
1312,23.999206102973934
1352,22.08939005076959
1392,23.997482604315338
1432,24.093898769687646
1472,23.998870918093848
1512,23.534768358536174
1552,23.29237794431843
1592,22.738644277237318
1632,23.72678352767714
1672,23.28703248148875
1712,20.59065579767352
1752,23.99148801302529
1792,23.998826143387324
1832,23.999948303492699
1872,23.242168426992035
2,1, 7,21, 0, 9, 0.00,10.00,SummerDesignDay
8,14.773641492809972
10,197066862.3954256
878,57571465.79597954
2,1, 7,21, 0, 9,10.00,20.00,SummerDesignDay
8,14.91640948124148
10,203577723.59057678
878,58796750.11166018
2,1, 7,21, 0, 9,20.00,30.00,SummerDesignDay
8,15.05843890714102
10,204834848.3744719
878,58777832.288475919
2,1, 7,21, 0, 9,30.00,40.00,SummerDesignDay
8,15.199735893563798
10,206763892.0468374
878,58791522.73853586
2,1, 7,21, 0, 9,40.00,50.00,SummerDesignDay
8,15.340306256439395
10,210626112.72070907
878,58848305.19326767
2,1, 7,21, 0, 9,50.00,60.00,SummerDesignDay
8,15.48015101768072
10,211987533.92456583
878,53882571.29463895
2,1, 7,21, 0, 9, 0.00,60.00,SummerDesignDay
1112,23.9760985397978
1152,23.031990613939347
1192,22.622227843237238
1232,23.43501801257575
1272,23.978319857380514
1312,23.99947657422264
1352,23.586772449312986
1392,23.997552843556304
1432,23.99951812179688
1472,23.998916089480688
1512,23.98352737191763
1552,24.43546826456662
1592,23.238763537159838
1632,23.996979684827339
1672,23.23659260299432
1712,22.129587441834067
1752,23.99985326567686
1792,23.998928013558385
1832,23.999821124716289
1872,23.98191409586357
2,1, 7,21, 0,10, 0.00,10.00,SummerDesignDay
8,15.60467292907716
10,279590149.8310896
878,60305544.42778891
2,1, 7,21, 0,10,10.00,20.00,SummerDesignDay
8,15.72862731650033
10,285245368.428174
878,62088618.09934042
2,1, 7,21, 0,10,20.00,30.00,SummerDesignDay
8,15.852017409284228
10,286744141.44940856
878,61938118.85855881
2,1, 7,21, 0,10,30.00,40.00,SummerDesignDay
8,15.974848118364367
10,289599142.7664702
878,62011154.54676249
2,1, 7,21, 0,10,40.00,50.00,SummerDesignDay
8,16.097123145563505
10,291851977.8266564
878,62038456.92669835
2,1, 7,21, 0,10,50.00,60.00,SummerDesignDay
8,16.218846351168599
10,294115445.0751249
878,62064500.66848993
2,1, 7,21, 0,10, 0.00,60.00,SummerDesignDay
1112,23.999559074206386
1152,23.24395174796598
1192,22.930451319118104
1232,23.974334055069478
1272,23.999764956481955
1312,23.99960339064532
1352,23.9995082977665
1392,23.997771969345008
1432,23.99949943065289
1472,23.999031030565857
1512,23.99969744558315
1552,25.655488860447247
1592,23.897757091852698
1632,23.99884839852957
1672,23.743892738077393
1712,23.72192438222139
1752,23.999345799884826
1792,23.99902600018237
1832,23.99978079643132
1872,23.9993904137191
2,1, 7,21, 0,11, 0.00,10.00,SummerDesignDay
8,16.325793027093189
10,301645683.7186788
878,72553347.4700517
2,1, 7,21, 0,11,10.00,20.00,SummerDesignDay
8,16.432322158488288
10,304364109.79098579
878,80517355.61763193
2,1, 7,21, 0,11,20.00,30.00,SummerDesignDay
8,16.538424180249178
10,306141613.7284996
878,91856460.45585419
2,1, 7,21, 0,11,30.00,40.00,SummerDesignDay
8,16.644108396469087
10,307896386.68482056
878,91938152.66544935
2,1, 7,21, 0,11,40.00,50.00,SummerDesignDay
8,16.749376736593655
10,309625709.7459917
878,80275969.43277939
2,1, 7,21, 0,11,50.00,60.00,SummerDesignDay
8,16.854232613237156
10,311370548.1467028
878,73580221.98651469
2,1, 7,21, 0,11, 0.00,60.00,SummerDesignDay
1112,23.999083348545104
1152,23.563250258168
1192,23.419316063134216
1232,23.999307740167699
1272,23.999245486966854
1312,23.999641044376756
1352,23.999130063001503
1392,23.996695153253655
1432,23.999031519589669
1472,23.998582096766513
1512,23.999352833319436
1552,26.911573585668078
1592,23.999940048537018
1632,23.997315232405755
1672,23.99935774970554
1712,25.393108965062156
1752,23.998895065175576
1792,23.998740016276146
1832,23.999726886950716
1872,23.999111584934139
2,1, 7,21, 0,12, 0.00,10.00,SummerDesignDay
8,16.92390823520069
10,317489849.2803851
878,71551118.67038213
2,1, 7,21, 0,12,10.00,20.00,SummerDesignDay
8,16.99340178950456
10,318691252.99289068
878,71294778.11809595
2,1, 7,21, 0,12,20.00,30.00,SummerDesignDay
8,17.06272006743463
10,320742245.14745876
878,71271997.8635017
2,1, 7,21, 0,12,30.00,40.00,SummerDesignDay
8,17.131853229172639
10,322205895.2604283
878,71249033.05144948
2,1, 7,21, 0,12,40.00,50.00,SummerDesignDay
8,17.200807172194087
10,323767518.410581
878,84137988.76370122
2,1, 7,21, 0,12,50.00,60.00,SummerDesignDay
8,17.269582116758607
10,325553994.25559148
878,85283274.80475283
2,1, 7,21, 0,12, 0.00,60.00,SummerDesignDay
1112,23.9988409793387
1152,23.951884129926247
1192,23.653392758440405
1232,23.99897500814245
1272,23.99895747761693
1312,23.999766873484658
1352,23.999037255474226
1392,23.99667040231527
1432,23.998723012952284
1472,23.998550570357506
1512,23.999087526663904
1552,27.917496116305995
1592,23.999890889920214
1632,23.996420843728147
1672,23.998775658855636
1712,26.74276045083036
1752,23.998702516566625
1792,23.998760137854487
1832,23.999787008701629
1872,23.999006534512917
2,1, 7,21, 0,13, 0.00,10.00,SummerDesignDay
8,17.32447360221357
10,325673128.0814438
878,93426054.13179964
2,1, 7,21, 0,13,10.00,20.00,SummerDesignDay
8,17.379251291230806
10,327340479.152396
878,79343151.96010465
2,1, 7,21, 0,13,20.00,30.00,SummerDesignDay
8,17.433921312061729
10,328623427.90791156
878,74290639.24748868
2,1, 7,21, 0,13,30.00,40.00,SummerDesignDay
8,17.488473222557489
10,330219984.6790322
878,74262293.62197492
2,1, 7,21, 0,13,40.00,50.00,SummerDesignDay
8,17.542913447755134
10,331478520.0183023
878,74232710.87798329
2,1, 7,21, 0,13,50.00,60.00,SummerDesignDay
8,17.59724609886134
10,332695266.79533979
878,75431416.42933838
2,1, 7,21, 0,13, 0.00,60.00,SummerDesignDay
1112,23.999097917371328
1152,23.99931566931784
1192,23.944002649489659
1232,23.998903577933576
1272,23.9988037878486
1312,23.999783302014966
1352,23.999179313624095
1392,23.99659708608135
1432,23.998137656549504
1472,23.998504824757828
1512,23.999111123406583
1552,28.73185502529473
1592,23.999681707975826
1632,23.996243726805859
1672,23.998301317953037
1712,27.707071225397458
1752,23.998611698894114
1792,23.998733569185704
1832,23.99989620436084
1872,23.999105356954858
2,1, 7,21, 0,14, 0.00,10.00,SummerDesignDay
8,17.6311450462694
10,332900878.95163038
878,97155465.54405229
2,1, 7,21, 0,14,10.00,20.00,SummerDesignDay
8,17.665000449016245
10,333810799.4613219
878,97599886.96263156
2,1, 7,21, 0,14,20.00,30.00,SummerDesignDay
8,17.698812743128934
10,334531944.98028448
878,78207390.19690869
2,1, 7,21, 0,14,30.00,40.00,SummerDesignDay
8,17.732582050940107
10,335180545.1484914
878,75125807.4121675
2,1, 7,21, 0,14,40.00,50.00,SummerDesignDay
8,17.766307345121004
10,335808503.42969617
878,75094784.28135638
2,1, 7,21, 0,14,50.00,60.00,SummerDesignDay
8,17.79999023167558
10,336426837.3589867
878,75062613.92344235
2,1, 7,21, 0,14, 0.00,60.00,SummerDesignDay
1112,23.999156915675269
1152,23.999045271054745
1192,23.99918895686105
1232,23.998837971468388
1272,23.99875384554612
1312,23.999797263248593
1352,23.99930900929613
1392,24.00612449599026
1432,23.99746827053326
1472,23.998444239350716
1512,23.999136962031988
1552,29.31690681822162
1592,23.999540894665473
1632,23.996228708206635
1672,23.99814380065055
1712,28.390376439060849
1752,23.998535734333463
1792,23.998745660721199
1832,23.999940148346693
1872,23.999145573779843
2,1, 7,21, 0,15, 0.00,10.00,SummerDesignDay
8,17.79999023167558
10,352523168.2043324
878,86855464.04000595
2,1, 7,21, 0,15,10.00,20.00,SummerDesignDay
8,17.79999023167558
10,352508716.3971225
878,97754632.1949814
2,1, 7,21, 0,15,20.00,30.00,SummerDesignDay
8,17.79999023167558
10,352033440.07478508
878,89403825.75676398
2,1, 7,21, 0,15,30.00,40.00,SummerDesignDay
8,17.79999023167558
10,348763934.64250656
878,75045791.17341754
2,1, 7,21, 0,15,40.00,50.00,SummerDesignDay
8,17.79999023167558
10,346531908.3405
878,75112011.22738149
2,1, 7,21, 0,15,50.00,60.00,SummerDesignDay
8,17.79999023167558
10,345736070.6231755
878,75078231.31492892
2,1, 7,21, 0,15, 0.00,60.00,SummerDesignDay
1112,23.999454266496973
1152,23.999522915671304
1192,23.99946124279226
1232,23.99942599942773
1272,23.999546245559388
1312,23.99991103288499
1352,23.99966196645465
1392,24.08755133723261
1432,24.006138153786507
1472,23.999226474777868
1512,23.999533731999063
1552,25.038372038583618
1592,23.99976245257864
1632,23.99826704810009
1672,23.999201618089527
1712,28.681488057150774
1752,23.999270655725355
1792,23.99943818867523
1832,23.99997985049028
1872,23.999496571736235
2,1, 7,21, 0,16, 0.00,10.00,SummerDesignDay
8,17.759562446305357
10,352918655.95918688
878,74033869.89139256
2,1, 7,21, 0,16,10.00,20.00,SummerDesignDay
8,17.71907809634183
10,351885834.59678938
878,92127943.26425536
2,1, 7,21, 0,16,20.00,30.00,SummerDesignDay
8,17.67853788661001
10,351051481.82455316
878,93361175.10412722
2,1, 7,21, 0,16,30.00,40.00,SummerDesignDay
8,17.63791796367351
10,350134975.5888453
878,86431811.385098
2,1, 7,21, 0,16,40.00,50.00,SummerDesignDay
8,17.59724609886134
10,349233996.70082107
878,74013690.05315396
2,1, 7,21, 0,16,50.00,60.00,SummerDesignDay
8,17.55650676726033
10,348304282.7944901
878,73988047.08423242
2,1, 7,21, 0,16, 0.00,60.00,SummerDesignDay
1112,23.998799082624826
1152,23.999179785219089
1192,23.998777784625064
1232,23.998787440178046
1272,23.99884133787718
1312,23.999801963310863
1352,23.999292176686948
1392,24.15675569431284
1432,24.001350038719325
1472,23.99830038842569
1512,23.998994753804099
1552,23.999676489579188
1592,23.999505629202873
1632,23.996392556659975
1672,23.99871373064695
1712,28.497956739814485
1752,23.998365449158624
1792,23.998889623524279
1832,23.99988921443811
1872,23.99873087643108
2,1, 7,21, 0,17, 0.00,10.00,SummerDesignDay
8,17.50209486331892
10,334565901.7344396
878,67677260.80196634
2,1, 7,21, 0,17,10.00,20.00,SummerDesignDay
8,17.447570789624618
10,332906276.8522616
878,66861811.555994618
2,1, 7,21, 0,17,20.00,30.00,SummerDesignDay
8,17.392929544208135
10,331775780.8378221
878,66845590.368093799
2,1, 7,21, 0,17,30.00,40.00,SummerDesignDay
8,17.33818013976614
10,330631874.40013638
878,66829318.9567177
2,1, 7,21, 0,17,40.00,50.00,SummerDesignDay
8,17.283317298559309
10,329444595.1346618
878,73293077.63636317
2,1, 7,21, 0,17,50.00,60.00,SummerDesignDay
8,17.22833552437677
10,328319506.20273306
878,75790990.03179708
2,1, 7,21, 0,17, 0.00,60.00,SummerDesignDay
1112,23.99876137849239
1152,23.999425642168423
1192,23.99876985579304
1232,23.999127071425567
1272,23.998851970728766
1312,23.99977814618425
1352,23.999317417679995
1392,24.135482675621874
1432,24.004480111443585
1472,23.99822646608378
1512,23.99901116482978
1552,23.99960645310423
1592,23.99949646424459
1632,23.99739739535957
1672,23.998941262261274
1712,27.90488420946078
1752,23.998709678512339
1792,23.998922919095948
1832,23.99984472882471
1872,23.998612385653048
2,1, 7,21, 0,18, 0.00,10.00,SummerDesignDay
8,17.159453019160176
10,308838565.46828117
878,62655376.96777534
2,1, 7,21, 0,18,10.00,20.00,SummerDesignDay
8,17.090391773337136
10,306638761.53153577
878,61477714.01266569
2,1, 7,21, 0,18,20.00,30.00,SummerDesignDay
8,17.021151077964786
10,305022398.1909101
878,61482900.09532781
2,1, 7,21, 0,18,30.00,40.00,SummerDesignDay
8,16.951729380464653
10,303492008.43658146
878,61488030.17281075
2,1, 7,21, 0,18,40.00,50.00,SummerDesignDay
8,16.882126503829249
10,302025810.76676508
878,61493156.87698994
2,1, 7,21, 0,18,50.00,60.00,SummerDesignDay
8,16.812341807494034
10,300576138.12566968
878,61498276.18504891
2,1, 7,21, 0,18, 0.00,60.00,SummerDesignDay
1112,23.99893393648365
1152,23.999531423773506
1192,23.998900993589328
1232,23.999484974271146
1272,23.998864803963813
1312,23.9996923063738
1352,23.999460635850427
1392,24.07421191722076
1432,23.997040753860334
1472,23.99818384405093
1512,23.999168917724309
1552,23.99963751012132
1592,23.99954772028434
1632,23.998607305226888
1672,23.9990386736991
1712,27.0586150805813
1752,23.99920645085422
1792,23.99896030230006
1832,23.999871377200269
1872,23.99869977986475
2,1, 7,21, 0,19, 0.00,10.00,SummerDesignDay
8,16.707321072823203
10,271803220.0038822
878,63623907.823987718
2,1, 7,21, 0,19,10.00,20.00,SummerDesignDay
8,16.601881826644556
10,269707711.74649009
878,60759721.65939551
2,1, 7,21, 0,19,20.00,30.00,SummerDesignDay
8,16.496030555252849
10,267706978.38264326
878,57548811.333337757
2,1, 7,21, 0,19,30.00,40.00,SummerDesignDay
8,16.389760181474104
10,265939882.54770787
878,57533719.27721969
2,1, 7,21, 0,19,40.00,50.00,SummerDesignDay
8,16.283067654262039
10,264146842.66022117
878,57517911.96444566
2,1, 7,21, 0,19,50.00,60.00,SummerDesignDay
8,16.17595057957811
10,262382684.8189449
878,57501910.429429668
2,1, 7,21, 0,19, 0.00,60.00,SummerDesignDay
1112,23.99931305538492
1152,23.99946776295647
1192,23.999171427327015
1232,23.999576491868365
1272,23.9993844670004
1312,23.99964889565995
1352,23.999729488939978
1392,24.00068675665465
1432,23.99767620024532
1472,23.99813579916859
1512,23.999409554214507
1552,23.999074324478245
1592,23.999663215951299
1632,23.999133163899257
1672,23.9987184848579
1712,25.896426894037277
1752,23.9993901543704
1792,23.99900790314889
1832,23.99991662249012
1872,23.999328532956068
2,1, 7,21, 0,20, 0.00,10.00,SummerDesignDay
8,16.097123145563505
10,246789098.8141255
878,59489519.878473009
2,1, 7,21, 0,20,10.00,20.00,SummerDesignDay
8,16.018070242471564
10,245494384.93020533
878,59690052.555725257
2,1, 7,21, 0,20,20.00,30.00,SummerDesignDay
8,15.938779752340516
10,244199688.46890725
878,59675459.25637231
2,1, 7,21, 0,20,30.00,40.00,SummerDesignDay
8,15.85926152575189
10,242893088.02163876
878,59660727.35303428
2,1, 7,21, 0,20,40.00,50.00,SummerDesignDay
8,15.779503718563929
10,241527549.77137555
878,59645844.56202928
2,1, 7,21, 0,20,50.00,60.00,SummerDesignDay
8,15.699515709672767
10,240084076.5714813
878,61200458.73537941
2,1, 7,21, 0,20, 0.00,60.00,SummerDesignDay
1112,23.997257540285888
1152,23.999188724612507
1192,23.999513207471084
1232,23.999453819548895
1272,24.191609608237625
1312,23.999604759112459
1352,23.646848456381929
1392,23.996011700464864
1432,23.998619844195749
1472,23.998071344413849
1512,23.999639600054434
1552,23.997535896366615
1592,23.99983268632691
1632,23.998913014228277
1672,23.998322974725594
1712,24.70118218763191
1752,23.999206796009799
1792,23.998991219544949
1832,23.999941268240318
1872,23.99972540159383
2,1, 7,21, 0,21, 0.00,10.00,SummerDesignDay
8,15.63389147320404
10,235716981.19228439
878,70344767.64259713
2,1, 7,21, 0,21,10.00,20.00,SummerDesignDay
8,15.56810827419793
10,234366600.95630495
878,70865445.05719517
2,1, 7,21, 0,21,20.00,30.00,SummerDesignDay
8,15.502170882753524
10,232858020.4769209
878,70872506.64202073