Program Version,EnergyPlus, Version 8.9.0-eba93e8e1b, YMD=2019.03.20 18:03
1,5,Environment Title[],Latitude[deg],Longitude[deg],Time Zone[],Elevation[m]
2,8,Day of Simulation[],Month[],Day of Month[],DST Indicator[1=yes 0=no],Hour[],StartMinute[],EndMinute[],DayType
3,5,Cumulative Day of Simulation[],Month[],Day of Month[],DST Indicator[1=yes 0=no],DayType  ! When Daily Report Variables Requested
4,2,Cumulative Days of Simulation[],Month[]  ! When Monthly Report Variables Requested
5,1,Cumulative Days of Simulation[] ! When Run Period Report Variables Requested
6,1,Calendar Year of Simulation[] ! When Annual Report Variables Requested
7,9,Environment,Site Outdoor Air Drybulb Temperature [C] !Monthly [Value,Min,Day,Hour,Minute,Max,Day,Hour,Minute]
8,1,Environment,Site Outdoor Air Wetbulb Temperature [C] !TimeStep
1047,1,ALL_ST=STORAGE AREA - OCCSENS_FL=STORY 4_SCH=E,Zone Air Temperature [C] !Hourly
1048,7,ALL_ST=STORAGE AREA - OCCSENS_FL=STORY 4_SCH=E,Zone Air Relative Humidity [%] !Daily [Value,Min,Hour,Minute,Max,Hour,Minute]
1087,1,ALL_ST=STORAGE AREA - REFRIGERATED - OCCSENS_FL=STORY 3_SCH=E,Zone Air Temperature [C] !Hourly
1088,7,ALL_ST=STORAGE AREA - REFRIGERATED - OCCSENS_FL=STORY 3_SCH=E,Zone Air Relative Humidity [%] !Daily [Value,Min,Hour,Minute,Max,Hour,Minute]
1127,1,ALL_ST=STORAGE AREA - REFRIGERATED_FL=STORY 3_SCH=E,Zone Air Temperature [C] !Hourly
1128,7,ALL_ST=STORAGE AREA - REFRIGERATED_FL=STORY 3_SCH=E,Zone Air Relative Humidity [%] !Daily [Value,Min,Hour,Minute,Max,Hour,Minute]
1167,1,ALL_ST=STORAGE AREA_FL=STORY 3_SCH=E,Zone Air Temperature [C] !Hourly
1168,7,ALL_ST=STORAGE AREA_FL=STORY 3_SCH=E,Zone Air Relative Humidity [%] !Daily [Value,Min,Hour,Minute,Max,Hour,Minute]
1207,1,ALL_ST=TRANSP. BAGGAGE_FL=STORY 1_SCH=H,Zone Air Temperature [C] !Hourly
1208,7,ALL_ST=TRANSP. BAGGAGE_FL=STORY 1_SCH=H,Zone Air Relative Humidity [%] !Daily [Value,Min,Hour,Minute,Max,Hour,Minute]
1247,1,ALL_ST=TRANSP. CONCOURSE_FL=STORY 3_SCH=H,Zone Air Temperature [C] !Hourly
1248,7,ALL_ST=TRANSP. CONCOURSE_FL=STORY 3_SCH=H,Zone Air Relative Humidity [%] !Daily [Value,Min,Hour,Minute,Max,Hour,Minute]
1287,1,ALL_ST=TRANSP. COUNTER_FL=STORY 1_SCH=H,Zone Air Temperature [C] !Hourly
1288,7,ALL_ST=TRANSP. COUNTER_FL=STORY 1_SCH=H,Zone Air Relative Humidity [%] !Daily [Value,Min,Hour,Minute,Max,Hour,Minute]
1327,1,ALL_ST=TRANSP. SEATING_FL=STORY 1_SCH=H,Zone Air Temperature [C] !Hourly
1328,7,ALL_ST=TRANSP. SEATING_FL=STORY 1_SCH=H,Zone Air Relative Humidity [%] !Daily [Value,Min,Hour,Minute,Max,Hour,Minute]
1367,1,ALL_ST=WAREHOUSE - FINE - REFRIGERATED_FL=STORY 2_SCH=A,Zone Air Temperature [C] !Hourly
1368,7,ALL_ST=WAREHOUSE - FINE - REFRIGERATED_FL=STORY 2_SCH=A,Zone Air Relative Humidity [%] !Daily [Value,Min,Hour,Minute,Max,Hour,Minute]
1407,1,ALL_ST=WAREHOUSE - FINE_FL=STORY 1_SCH=A,Zone Air Temperature [C] !Hourly
1408,7,ALL_ST=WAREHOUSE - FINE_FL=STORY 1_SCH=A,Zone Air Relative Humidity [%] !Daily [Value,Min,Hour,Minute,Max,Hour,Minute]
1447,1,ALL_ST=WAREHOUSE - MED/BLK - REFRIGERATED_FL=STORY 2_SCH=A,Zone Air Temperature [C] !Hourly
1448,7,ALL_ST=WAREHOUSE - MED/BLK - REFRIGERATED_FL=STORY 2_SCH=A,Zone Air Relative Humidity [%] !Daily [Value,Min,Hour,Minute,Max,Hour,Minute]
1487,1,ALL_ST=WAREHOUSE - MED/BLK2 - REFRIGERATED_FL=STORY 2_SCH=A,Zone Air Temperature [C] !Hourly
1488,7,ALL_ST=WAREHOUSE - MED/BLK2 - REFRIGERATED_FL=STORY 2_SCH=A,Zone Air Relative Humidity [%] !Daily [Value,Min,Hour,Minute,Max,Hour,Minute]
1527,1,ALL_ST=WAREHOUSE - MED/BLK2_FL=STORY 2_SCH=A,Zone Air Temperature [C] !Hourly
1528,7,ALL_ST=WAREHOUSE - MED/BLK2_FL=STORY 2_SCH=A,Zone Air Relative Humidity [%] !Daily [Value,Min,Hour,Minute,Max,Hour,Minute]
1567,1,ALL_ST=WAREHOUSE - MED/BLK_FL=STORY 1_SCH=A,Zone Air Temperature [C] !Hourly
1568,7,ALL_ST=WAREHOUSE - MED/BLK_FL=STORY 1_SCH=A,Zone Air Relative Humidity [%] !Daily [Value,Min,Hour,Minute,Max,Hour,Minute]
1607,1,WET_ST=WASHROOM-SCH-A_FL=STORY 4_SCHA,Zone Air Temperature [C] !Hourly
1608,7,WET_ST=WASHROOM-SCH-A_FL=STORY 4_SCHA,Zone Air Relative Humidity [%] !Daily [Value,Min,Hour,Minute,Max,Hour,Minute]
1647,1,WET_ST=WASHROOM-SCH-B_FL=STORY 2_SCHA,Zone Air Temperature [C] !Hourly
1648,7,WET_ST=WASHROOM-SCH-B_FL=STORY 2_SCHA,Zone Air Relative Humidity [%] !Daily [Value,Min,Hour,Minute,Max,Hour,Minute]
1687,1,WILD_ST=STAIRWAY-SCH-F_FL=STORY 4_SCH=A,Zone Air Temperature [C] !Hourly
1688,7,WILD_ST=STAIRWAY-SCH-F_FL=STORY 4_SCH=A,Zone Air Relative Humidity [%] !Daily [Value,Min,Hour,Minute,Max,Hour,Minute]
1727,1,WILD_ST=STAIRWAY-SCH-G_FL=STORY 4_SCH=A,Zone Air Temperature [C] !Hourly
1728,7,WILD_ST=STAIRWAY-SCH-G_FL=STORY 4_SCH=A,Zone Air Relative Humidity [%] !Daily [Value,Min,Hour,Minute,Max,Hour,Minute]
1767,1,WILD_ST=STAIRWAY-SCH-H_FL=STORY 4_SCH=A,Zone Air Temperature [C] !Hourly
1768,7,WILD_ST=STAIRWAY-SCH-H_FL=STORY 4_SCH=A,Zone Air Relative Humidity [%] !Daily [Value,Min,Hour,Minute,Max,Hour,Minute]
1807,1,WILD_ST=STAIRWAY-SCH-I_FL=STORY 3_SCH=A,Zone Air Temperature [C] !Hourly
1808,7,WILD_ST=STAIRWAY-SCH-I_FL=STORY 3_SCH=A,Zone Air Relative Humidity [%] !Daily [Value,Min,Hour,Minute,Max,Hour,Minute]
10,1,Electricity:Facility [J] !TimeStep
813,1,Gas:Facility [J] !TimeStep
End of Data Dictionary
1,FORT MCMURRAY AP ANN CLG .4% CONDNS DB=>MWB,  56.65,-111.22,  -7.00, 369.10
2,1, 7,21, 0, 1, 0.00,10.00,SummerDesignDay
8,14.218136923962174
10,77975924.89927989
813,24288007.407087968
2,1, 7,21, 0, 1,10.00,20.00,SummerDesignDay
8,14.171982153293495
10,77948344.05130033
813,24244000.205078927
2,1, 7,21, 0, 1,20.00,30.00,SummerDesignDay
8,14.125744780286427
10,77948182.57669473
813,24174746.27165575
2,1, 7,21, 0, 1,30.00,40.00,SummerDesignDay
8,14.079436086331978
10,77948109.32245435
813,24101820.516759896
2,1, 7,21, 0, 1,40.00,50.00,SummerDesignDay
8,14.033050387896898
10,77948064.20115808
813,32165865.573450179
2,1, 7,21, 0, 1,50.00,60.00,SummerDesignDay
8,13.986581233564835
10,77948027.12652272
813,32227783.69323887
2,1, 7,21, 0, 1, 0.00,60.00,SummerDesignDay
1047,24.375271815745348
1087,26.221780202536058
1127,25.750940873418377
1167,25.55474141059051
1207,24.360720331755528
1247,23.450751621931248
1287,24.18560838004683
1327,23.249118414540225
1367,26.408683962727
1407,24.57001562694119
1447,25.299927237920014
1487,25.377952937245558
1527,25.3213654511714
1567,24.462972117657285
1607,24.30433096134737
1647,25.461478013393344
1687,23.715807088102435
1727,23.69235384442683
1767,24.054425789109535
1807,25.49485857114358
2,1, 7,21, 0, 2, 0.00,10.00,SummerDesignDay
8,13.95555882260429
10,77947992.40838625
813,32238799.806853724
2,1, 7,21, 0, 2,10.00,20.00,SummerDesignDay
8,13.924507755336454
10,77947966.81753353
813,32250021.6311523
2,1, 7,21, 0, 2,20.00,30.00,SummerDesignDay
8,13.893416042989206
10,77947943.40660048
813,32261240.853215446
2,1, 7,21, 0, 2,30.00,40.00,SummerDesignDay
8,13.862289589689029
10,77947920.6597923
813,32272454.841703025
2,1, 7,21, 0, 2,40.00,50.00,SummerDesignDay
8,13.831134407608739
10,77947898.10953751
813,26918856.866583524
2,1, 7,21, 0, 2,50.00,60.00,SummerDesignDay
8,13.799938415548118
10,77947875.62570271
813,24266357.83605955
2,1, 7,21, 0, 2, 0.00,60.00,SummerDesignDay
1047,24.099688628380937
1087,25.979526955955497
1127,25.56227654044392
1167,25.34780216548933
1207,24.32098599933737
1247,23.32334050771816
1287,24.16521845698635
1327,23.210926281106468
1367,26.163028933337654
1407,24.457162529347796
1447,25.10372069468504
1487,25.13484278150156
1527,25.18351792158651
1567,24.353485106026743
1607,24.001153409488198
1647,25.333480780992415
1687,23.36038071779753
1727,23.352075598936968
1767,23.699054376272998
1807,25.331810050358724
2,1, 7,21, 0, 3, 0.00,10.00,SummerDesignDay
8,13.776521671948676
10,77947853.16331449
813,24198126.35322393
2,1, 7,21, 0, 3,10.00,20.00,SummerDesignDay
8,13.753085235778466
10,77947834.92080304
813,24126053.25969524
2,1, 7,21, 0, 3,20.00,30.00,SummerDesignDay
8,13.729636002354969
10,77947817.66892365
813,29488698.815718626
2,1, 7,21, 0, 3,30.00,40.00,SummerDesignDay
8,13.706147375533054
10,77947800.72428723
813,32224634.551901938
2,1, 7,21, 0, 3,40.00,50.00,SummerDesignDay
8,13.682651961920304
10,77947783.86224836
813,32235132.206333039
2,1, 7,21, 0, 3,50.00,60.00,SummerDesignDay
8,13.659136670643687
10,77947767.03440103
813,32246331.075556525
2,1, 7,21, 0, 3, 0.00,60.00,SummerDesignDay
1047,23.869476474070184
1087,25.759641323862593
1127,25.389571891367525
1167,25.163149948273728
1207,24.278370349000246
1247,23.19570485654322
1287,24.142463373448256
1327,23.170469354447098
1367,25.955348220735674
1407,24.36941715532076
1447,24.94306865748007
1487,24.931435914182019
1527,25.067141101565715
1567,24.26580529139996
1607,23.75176951555785
1647,25.225434208185506
1687,23.06560080672426
1727,23.071064561266355
1767,23.402385934870197
1807,25.184031542350238
2,1, 7,21, 0, 4, 0.00,10.00,SummerDesignDay
8,13.63560137410855
10,77947750.21874537
813,32257551.514204995
2,1, 7,21, 0, 4,10.00,20.00,SummerDesignDay
8,13.612040802606578
10,77947733.40996406
813,32268767.457872426
2,1, 7,21, 0, 4,20.00,30.00,SummerDesignDay
8,13.58846620506876
10,77947716.60394508
813,29540355.683563129
2,1, 7,21, 0, 4,30.00,40.00,SummerDesignDay
8,13.56487178447336
10,77947699.80452296
813,24285903.399354944
2,1, 7,21, 0, 4,40.00,50.00,SummerDesignDay
8,13.541257354069103
10,77947683.0106234
813,24221174.20168156
2,1, 7,21, 0, 4,50.00,60.00,SummerDesignDay
8,13.517617463812285
10,77947666.22101599
813,24150033.627493048
2,1, 7,21, 0, 4, 0.00,60.00,SummerDesignDay
1047,23.665311711743099
1087,25.551610568488898
1127,25.224953802096793
1167,24.990129933804924
1207,24.23353291354209
1247,23.068068469718467
1287,24.11773848391447
1327,23.128320685744087
1367,25.766175284876053
1407,24.29264636582366
1447,24.798182389331428
1487,24.747584054159277
1527,24.95957206028666
1567,24.187527280769577
1607,23.53373803280346
1647,25.128216781819267
1687,22.80765440003783
1727,22.825517298728994
1767,23.141130012575773
1807,25.04651476174689
2,1, 7,21, 0, 5, 0.00,10.00,SummerDesignDay
8,13.50185415824011
10,77947649.43369659
813,26819494.572679104
2,1, 7,21, 0, 5,10.00,20.00,SummerDesignDay
8,13.486076034032447
10,77947636.84764479
813,32222249.823666198
2,1, 7,21, 0, 5,20.00,30.00,SummerDesignDay
8,13.470289340350983
10,77947625.24168955
813,32231510.20401279
2,1, 7,21, 0, 5,30.00,40.00,SummerDesignDay
8,13.454493322631063
10,77947613.93627997
813,32242642.497743027
2,1, 7,21, 0, 5,40.00,50.00,SummerDesignDay
8,13.438688835118548
10,77947602.71917202
813,32253863.81966231
2,1, 7,21, 0, 5,50.00,60.00,SummerDesignDay
8,13.422888173889437
10,77947591.52917472
813,32265081.48862461
2,1, 7,21, 0, 5, 0.00,60.00,SummerDesignDay
1047,23.520702487316897
1087,25.359702150761675
1127,25.128470052092763
1167,24.832311809606144
1207,24.18713337233031
1247,23.048768714982335
1287,24.09223693915898
1327,23.08559001103659
1367,25.593364060774204
1407,24.22070539933435
1447,24.724779562116596
1487,24.67124054628458
1527,24.862116120372009
1567,24.113147829854765
1607,23.387309701165113
1647,25.03834636743576
1687,22.797033229014457
1727,22.760239731363414
1767,22.969577056169539
1807,24.921769818668726
2,1, 7,21, 0, 6, 0.00,10.00,SummerDesignDay
8,13.438688835118548
10,77947580.3547237
813,32156646.41777366
2,1, 7,21, 0, 6,10.00,20.00,SummerDesignDay
8,13.454493322631063
10,77947585.92983634
813,24303490.239779105
2,1, 7,21, 0, 6,20.00,30.00,SummerDesignDay
8,13.470289340350983
10,77947595.42848246
813,24243899.08507481
2,1, 7,21, 0, 6,30.00,40.00,SummerDesignDay
8,13.486076034032447
10,77947606.12388955
813,24173771.56298817
2,1, 7,21, 0, 6,40.00,50.00,SummerDesignDay
8,13.50185415824011
10,77947617.1651901
813,24156703.733045706
2,1, 7,21, 0, 6,50.00,60.00,SummerDesignDay
8,13.517617463812285
10,77947628.30877827
813,32220622.780064759
2,1, 7,21, 0, 6, 0.00,60.00,SummerDesignDay
1047,23.597180823898954
1087,25.24462038372006
1127,25.13633454548723
1167,24.74938799605975
1207,24.139597808184225
1247,23.388965614925309
1287,24.07062592406074
1327,23.052927687122236
1367,25.48107809287247
1407,24.17326371815771
1447,24.76396942905994
1487,25.005281297973626
1527,24.813077439488454
1567,24.06282068297546
1607,23.48811732353063
1647,24.99553892557555
1687,23.624396927880068
1727,23.114515255627607
1767,23.17049221797797
1807,24.90049334822487
2,1, 7,21, 0, 7, 0.00,10.00,SummerDesignDay
8,13.572736920571789
10,90021622.45025508
813,32533109.96281469
2,1, 7,21, 0, 7,10.00,20.00,SummerDesignDay
8,13.627748229152554
10,84479785.4125931
813,32227405.15347789
2,1, 7,21, 0, 7,20.00,30.00,SummerDesignDay
8,13.682651961920304
10,88476921.55300617
813,32249975.64872043
2,1, 7,21, 0, 7,30.00,40.00,SummerDesignDay
8,13.737448093244995
10,90356232.1428583
813,32261542.461172344
2,1, 7,21, 0, 7,40.00,50.00,SummerDesignDay
8,13.792137011831216
10,91833938.26946229
813,32272756.579921485
2,1, 7,21, 0, 7,50.00,60.00,SummerDesignDay
8,13.846719282840333
10,93539771.74734257
813,26704115.271139213
2,1, 7,21, 0, 7, 0.00,60.00,SummerDesignDay
1047,23.926116839791758
1087,25.23707134366766
1127,25.09571627831504
1167,24.770896848520257
1207,24.094957566796258
1247,23.76492393648701
1287,24.055189255174697
1327,23.047032202099744
1367,25.46765339231736
1407,23.960522425211363
1447,24.752441579519315
1487,25.482400530173164
1527,24.010274085146525
1567,23.988645445133348
1607,23.842316259367825
1647,25.017724270892189
1687,24.000214802832308
1727,22.823816425255683
1767,22.92413056335704
1807,24.655659354706228
2,1, 7,21, 0, 8, 0.00,10.00,SummerDesignDay
8,13.978831900527043
10,147537802.60090883
813,25973231.092459289
2,1, 7,21, 0, 8,10.00,20.00,SummerDesignDay
8,14.110321014287419
10,134145226.26118446
813,25044822.27050775
2,1, 7,21, 0, 8,20.00,30.00,SummerDesignDay
8,14.241191509616986
10,143806979.65143193
813,24905963.16463113
2,1, 7,21, 0, 8,30.00,40.00,SummerDesignDay
8,14.371447531304272
10,147554461.84880729
813,28661198.680777998
2,1, 7,21, 0, 8,40.00,50.00,SummerDesignDay
8,14.501093766564925
10,149204886.9418426
813,32537483.37356063
2,1, 7,21, 0, 8,50.00,60.00,SummerDesignDay
8,14.630134792273804
10,152035010.21460719
813,32546353.438284976
2,1, 7,21, 0, 8, 0.00,60.00,SummerDesignDay
1047,23.429097366367814
1087,24.365403718022276
1127,24.50041966086971
1167,24.01309893724536
1207,24.05105672896221
1247,23.991644108034057
1287,24.036940895600055
1327,23.06437342823561
1367,25.7815331901011
1407,23.999907803838
1447,25.033059681323988
1487,26.193921710730064
1527,23.999915311275385
1567,23.99994272401128
1607,23.999933880723906
1647,24.995056007440128
1687,23.99973137260548
1727,22.332387417282264
1767,22.43683333305493
1807,24.237487697858499
2,1, 7,21, 0, 9, 0.00,10.00,SummerDesignDay
8,14.773641492809972
10,245371217.0838376
813,35776581.026669759
2,1, 7,21, 0, 9,10.00,20.00,SummerDesignDay
8,14.91640948124148
10,249498100.77738629
813,36179176.66153305
2,1, 7,21, 0, 9,20.00,30.00,SummerDesignDay
8,15.05843890714102
10,252627600.7659269
813,36182517.48706153
2,1, 7,21, 0, 9,30.00,40.00,SummerDesignDay
8,15.199735893563798
10,255750392.1551715
813,36185735.75523585
2,1, 7,21, 0, 9,40.00,50.00,SummerDesignDay
8,15.340306256439395
10,258807808.35397453
813,36188946.64212653
2,1, 7,21, 0, 9,50.00,60.00,SummerDesignDay
8,15.48015101768072
10,261826431.31615255
813,36081449.7063051
2,1, 7,21, 0, 9, 0.00,60.00,SummerDesignDay
1047,24.074413705562916
1087,24.250133806794577
1127,24.50987743203524
1167,23.999881616121149
1207,24.019173180753034
1247,23.998457746490787
1287,24.025237334079248
1327,23.10844298173721
1367,26.676180973701649
1407,23.999615106523306
1447,25.79860545998231
1487,27.31305196986352
1527,23.999799446309568
1567,23.99978055176253
1607,23.999718078918439
1647,25.045110691439743
1687,23.999413977671599
1727,22.11653099948845
1767,22.163264597773098
1807,23.92295680188911
2,1, 7,21, 0,10, 0.00,10.00,SummerDesignDay
8,15.60467292907716
10,292937920.9717328
813,37761942.20931392
2,1, 7,21, 0,10,10.00,20.00,SummerDesignDay
8,15.72862731650033
10,296307331.30633196
813,38324053.3733756
2,1, 7,21, 0,10,20.00,30.00,SummerDesignDay
8,15.852017409284228
10,299123853.1632684
813,38316641.155245099
2,1, 7,21, 0,10,30.00,40.00,SummerDesignDay
8,15.974848118364367
10,301847820.44376817
813,38309018.45432188
2,1, 7,21, 0,10,40.00,50.00,SummerDesignDay
8,16.097123145563505
10,304425276.47912409
813,38301316.43224019
2,1, 7,21, 0,10,50.00,60.00,SummerDesignDay
8,16.218846351168599
10,306929799.1337865
813,38293540.45451186
2,1, 7,21, 0,10, 0.00,60.00,SummerDesignDay
1047,24.55088948224709
1087,24.004744797098
1127,24.51131090876257
1167,23.999776329367895
1207,24.0075592419191
1247,23.998502798949919
1287,24.026460232789714
1327,23.17006987864322
1367,27.629169292930116
1407,23.99947936787144
1447,26.59243581621196
1487,28.171835728048405
1527,23.999726255476707
1567,23.999733305057096
1607,23.99947277031522
1647,24.896868192013416
1687,23.99929321155957
1727,22.18178436535587
1767,22.171668578126086
1807,23.719457492161199
2,1, 7,21, 0,11, 0.00,10.00,SummerDesignDay
8,16.325793027093189
10,318071049.61699619
813,42380646.92736044
2,1, 7,21, 0,11,10.00,20.00,SummerDesignDay
8,16.432322158488288
10,320938235.61837878
813,42768717.311226148
2,1, 7,21, 0,11,20.00,30.00,SummerDesignDay
8,16.538424180249178
10,323513218.5032597
813,45473903.701694648
2,1, 7,21, 0,11,30.00,40.00,SummerDesignDay
8,16.644108396469087
10,326062219.71267876
813,50596184.23133928
2,1, 7,21, 0,11,40.00,50.00,SummerDesignDay
8,16.749376736593655
10,328704907.79713818
813,50612407.094010848
2,1, 7,21, 0,11,50.00,60.00,SummerDesignDay
8,16.854232613237156
10,331371953.8504698
813,50630749.0076859
2,1, 7,21, 0,11, 0.00,60.00,SummerDesignDay
1047,24.669692414787439
1087,23.634589921657264
1127,24.396546282351154
1167,23.999614810946544
1207,24.006178462310687
1247,23.99858412511645
1287,24.036370024151738
1327,23.231346355139647
1367,28.311379623155117
1407,23.999466537640175
1447,27.239515298173428
1487,28.57054825869839
1527,23.999689912342946
1567,23.999757889890906
1607,23.99931871557312
1647,24.566310063549726
1687,23.999418781252826
1727,22.632307134397409
1767,22.589330239531347
1807,23.71844360867276
2,1, 7,21, 0,12, 0.00,10.00,SummerDesignDay
8,16.92390823520069
10,333472292.71888318
813,48989448.81152778
2,1, 7,21, 0,12,10.00,20.00,SummerDesignDay
8,16.99340178950456
10,335624054.07677486
813,42820441.266262199
2,1, 7,21, 0,12,20.00,30.00,SummerDesignDay
8,17.06272006743463
10,337916110.11172857
813,42810303.61826703
2,1, 7,21, 0,12,30.00,40.00,SummerDesignDay
8,17.131853229172639
10,340221884.1718744
813,42798977.96556976
2,1, 7,21, 0,12,40.00,50.00,SummerDesignDay
8,17.200807172194087
10,342512907.92605265
813,42787447.05628542
2,1, 7,21, 0,12,50.00,60.00,SummerDesignDay
8,17.269582116758607
10,344735243.1464618
813,42775760.86140516
2,1, 7,21, 0,12, 0.00,60.00,SummerDesignDay
1047,24.57120096044957
1087,23.277457190073389
1127,24.22247448135522
1167,23.999502354766915
1207,24.00992402712505
1247,23.99859101194976
1287,24.050313582662043
1327,23.275161007992467
1367,28.730369785786907
1407,23.99945686828462
1447,27.696514548666106
1487,28.778930082374758
1527,23.999670796855086
1567,23.999773753979274
1607,23.999252840196659
1647,24.276029212130557
1687,23.99956102412557
1727,23.181726052971088
1767,23.117634050419779
1807,23.845461027001944
2,1, 7,21, 0,13, 0.00,10.00,SummerDesignDay
8,17.32447360221357
10,345837094.17157366
813,46661911.149736579
2,1, 7,21, 0,13,10.00,20.00,SummerDesignDay
8,17.379251291230806
10,347667985.35418698
813,58778573.72756733
2,1, 7,21, 0,13,20.00,30.00,SummerDesignDay
8,17.433921312061729
10,349196536.10347887
813,58832493.340208258
2,1, 7,21, 0,13,30.00,40.00,SummerDesignDay
8,17.488473222557489
10,350676647.25358256
813,46985579.608348678
2,1, 7,21, 0,13,40.00,50.00,SummerDesignDay
8,17.542913447755134
10,352056644.0100495
813,45458418.14641571
2,1, 7,21, 0,13,50.00,60.00,SummerDesignDay
8,17.59724609886134
10,353313261.1808764
813,45442195.3374885
2,1, 7,21, 0,13, 0.00,60.00,SummerDesignDay
1047,24.403782769354767
1087,23.027122350701565
1127,24.11194067222176
1167,23.99940258793939
1207,24.018159944735399
1247,23.998539169531939
1287,24.067710177963403
1327,23.299172891974199
1367,28.972447633620069
1407,23.999501477197219
1447,27.98663957801755
1487,28.982732939479033
1527,23.999726649549513
1567,23.999803054454163
1607,23.999380295425028
1647,24.040134013639429
1687,23.999604728977109
1727,23.41504494956818
1767,23.329143720926369
1807,23.89922236146481
2,1, 7,21, 0,14, 0.00,10.00,SummerDesignDay
8,17.6311450462694
10,354114422.7623708
813,47466503.15857699
2,1, 7,21, 0,14,10.00,20.00,SummerDesignDay
8,17.665000449016245
10,354917735.8976732
813,67926649.0086865
2,1, 7,21, 0,14,20.00,30.00,SummerDesignDay
8,17.698812743128934
10,355480562.2287108
813,54948907.7144424
2,1, 7,21, 0,14,30.00,40.00,SummerDesignDay
8,17.732582050940107
10,355938588.4274578
813,47703620.82933539
2,1, 7,21, 0,14,40.00,50.00,SummerDesignDay
8,17.766307345121004
10,356298520.25894007
813,47683760.45815643
2,1, 7,21, 0,14,50.00,60.00,SummerDesignDay
8,17.79999023167558
10,356561415.0465318
813,60180551.94677567
2,1, 7,21, 0,14, 0.00,60.00,SummerDesignDay
1047,24.232852193287369
1087,22.95113505203155
1127,24.10302965458249
1167,23.999277374360415
1207,24.029995922914183
1247,23.998515878126687
1287,24.08681729778232
1327,23.314180499607859
1367,29.17040284232373
1407,23.999537307783986
1447,28.21825055455459
1487,29.167659079740504
1527,23.99981657938515
1567,23.999842474709909
1607,23.999683413862756
1647,23.997460894611917
1687,23.999736946214257
1727,23.48162029373786
1767,23.452108920999014
1807,23.95513852291876
2,1, 7,21, 0,15, 0.00,10.00,SummerDesignDay
8,17.79999023167558
10,356555249.417481
813,62232154.983709458
2,1, 7,21, 0,15,10.00,20.00,SummerDesignDay
8,17.79999023167558
10,356046177.1324158
813,46634671.739225368
2,1, 7,21, 0,15,20.00,30.00,SummerDesignDay
8,17.79999023167558
10,355475212.9538784
813,46618975.71825666
2,1, 7,21, 0,15,30.00,40.00,SummerDesignDay
8,17.79999023167558
10,354790791.09952846
813,46600067.542315568
2,1, 7,21, 0,15,40.00,50.00,SummerDesignDay
8,17.79999023167558
10,353983580.42218258
813,54433567.79477639
2,1, 7,21, 0,15,50.00,60.00,SummerDesignDay
8,17.79999023167558
10,353061163.1635063
813,63992075.9759686
2,1, 7,21, 0,15, 0.00,60.00,SummerDesignDay
1047,24.11168720017601
1087,23.269275027223786
1127,24.189386468626528
1167,23.99924839121825
1207,24.052907433545547
1247,23.998515490889515
1287,24.107974650330147
1327,23.329020761162423
1367,29.513633808913246
1407,23.999427732185528
1447,28.39762375987338
1487,29.306868017473236
1527,23.99981081332423
1567,23.99979283176319
1607,23.999507160513656
1647,24.207768261722604
1687,23.99979277029148
1727,23.52385016419646
1767,23.900238856557196
1807,24.088069392333496
2,1, 7,21, 0,16, 0.00,10.00,SummerDesignDay
8,17.759562446305357
10,351649975.2881376
813,49045424.70195531
2,1, 7,21, 0,16,10.00,20.00,SummerDesignDay
8,17.71907809634183
10,349724755.2514131
813,45460339.14013631
2,1, 7,21, 0,16,20.00,30.00,SummerDesignDay
8,17.67853788661001
10,347766259.21759107
813,45444255.66424797
2,1, 7,21, 0,16,30.00,40.00,SummerDesignDay
8,17.63791796367351
10,345718342.4631149
813,45427526.83534687
2,1, 7,21, 0,16,40.00,50.00,SummerDesignDay
8,17.59724609886134
10,343600618.74465689
813,50270142.13283165
2,1, 7,21, 0,16,50.00,60.00,SummerDesignDay
8,17.55650676726033
10,341673832.2303115
813,58789722.44357286
2,1, 7,21, 0,16, 0.00,60.00,SummerDesignDay
1047,23.975722286440413
1087,23.873128976951564
1127,24.365931058591099
1167,23.99928031959902
1207,24.099444124000887
1247,23.99852565689945
1287,24.130721337233898
1327,23.34467153088683
1367,29.927942237484357
1407,23.999298915394275
1447,28.446805228858027
1487,29.322004598158427
1527,23.999696414601975
1567,23.999716364836826
1607,23.99945933582376
1647,24.50523039335943
1687,23.99967909911079
1727,23.57866295445457
1767,24.582781641114179
1807,24.303169321435289
2,1, 7,21, 0,17, 0.00,10.00,SummerDesignDay
8,17.50209486331892
10,339428835.1289254
813,57063372.51616343
2,1, 7,21, 0,17,10.00,20.00,SummerDesignDay
8,17.447570789624618
10,337339267.98002639
813,45628427.028281468
2,1, 7,21, 0,17,20.00,30.00,SummerDesignDay
8,17.392929544208135
10,335188528.31085196
813,45614054.530569817
2,1, 7,21, 0,17,30.00,40.00,SummerDesignDay
8,17.33818013976614
10,333048131.5194065
813,45597273.98508959
2,1, 7,21, 0,17,40.00,50.00,SummerDesignDay
8,17.283317298559309
10,330903268.3759267
813,45580027.21185936
2,1, 7,21, 0,17,50.00,60.00,SummerDesignDay
8,17.22833552437677
10,328738978.9723441
813,57715151.487648
2,1, 7,21, 0,17, 0.00,60.00,SummerDesignDay
1047,23.656168234493256
1087,24.374063998943077
1127,24.523238099621666
1167,23.99927486549936
1207,24.171225201370495
1247,23.99853692593398
1287,24.15419538228765
1327,23.35988896744909
1367,30.182109281961944
1407,23.99919899208061
1447,28.37416632167775
1487,29.21780082866667
1527,23.999665879736925
1567,23.999641625737927
1607,23.99953461863178
1647,24.845753402051277
1687,23.999725247840776
1727,23.644945841077335
1767,25.079495796604836
1807,24.601140642481558
2,1, 7,21, 0,18, 0.00,10.00,SummerDesignDay
8,17.159453019160176
10,312357878.3538359
813,41512110.27888967
2,1, 7,21, 0,18,10.00,20.00,SummerDesignDay
8,17.090391773337136
10,309175392.5460283
813,40175740.85538286
2,1, 7,21, 0,18,20.00,30.00,SummerDesignDay
8,17.021151077964786
10,306466410.27664425
813,40178678.98006501
2,1, 7,21, 0,18,30.00,40.00,SummerDesignDay
8,16.951729380464653
10,303848710.43778249
813,40181038.77873369
2,1, 7,21, 0,18,40.00,50.00,SummerDesignDay
8,16.882126503829249
10,301307936.95878008
813,40183388.86849522
2,1, 7,21, 0,18,50.00,60.00,SummerDesignDay
8,16.812341807494034
10,298829223.1933801
813,39681342.001665648
2,1, 7,21, 0,18, 0.00,60.00,SummerDesignDay
1047,23.127068629690286
1087,24.70412093692511
1127,24.607311238679356
1167,23.999307420529463
1207,24.257131837314917
1247,23.998550235915685
1287,24.17700454447518
1327,23.37288453548426
1367,30.206115096521484
1407,23.99922424721419
1447,28.17776952444756
1487,28.97219602389188
1527,23.999683167746129
1567,23.999601581237959
1607,23.99967249990385
1647,25.112597505811285
1687,23.999797033103964
1727,23.7157031352629
1767,25.36574688694014
1807,24.9179587905106
2,1, 7,21, 0,19, 0.00,10.00,SummerDesignDay
8,16.707321072823203
10,227846514.41364996
813,28880021.669713826
2,1, 7,21, 0,19,10.00,20.00,SummerDesignDay
8,16.601881826644556
10,223982758.20214809
813,27845780.734974766
2,1, 7,21, 0,19,20.00,30.00,SummerDesignDay
8,16.496030555252849
10,220990803.44045047
813,27814006.39699309
2,1, 7,21, 0,19,30.00,40.00,SummerDesignDay
8,16.389760181474104
10,218096999.391289
813,27780161.440306896
2,1, 7,21, 0,19,40.00,50.00,SummerDesignDay
8,16.283067654262039
10,215338288.9124814
813,27745516.05755479
2,1, 7,21, 0,19,50.00,60.00,SummerDesignDay
8,16.17595057957811
10,212695315.68233384
813,30185123.029203644
2,1, 7,21, 0,19, 0.00,60.00,SummerDesignDay
1047,22.613303597755544
1087,24.941025635627047
1127,24.58520800743189
1167,23.999601077198795
1207,24.341147604448567
1247,23.998566412505597
1287,24.195428715515747
1327,23.378746110343646
1367,29.810112622431658
1407,23.999505502154894
1447,27.69714181715726
1487,28.40566897773493
1527,23.99977927792811
1567,23.999715970435874
1607,23.999853165623237
1647,25.18730171929373
1687,23.999883566143344
1727,23.824545850159799
1767,25.431843488399627
1807,25.157937351232297
2,1, 7,21, 0,20, 0.00,10.00,SummerDesignDay
8,16.097123145563505
10,146889837.10269059
813,33355860.8165511
2,1, 7,21, 0,20,10.00,20.00,SummerDesignDay
8,16.018070242471564
10,144822968.38818959
813,34189591.46315544
2,1, 7,21, 0,20,20.00,30.00,SummerDesignDay
8,15.938779752340516
10,143263430.59784789
813,34339319.1659526
2,1, 7,21, 0,20,30.00,40.00,SummerDesignDay
8,15.85926152575189
10,141632952.72319175
813,34336905.56258963
2,1, 7,21, 0,20,40.00,50.00,SummerDesignDay
8,15.779503718563929
10,140686674.73869396
813,33853849.11711897
2,1, 7,21, 0,20,50.00,60.00,SummerDesignDay
8,15.699515709672767
10,139038658.70952816
813,33203792.008587954
2,1, 7,21, 0,20, 0.00,60.00,SummerDesignDay
1047,24.29342790678187
1087,26.537623966077424
1127,25.641480754048869
1167,25.396956803510674
1207,24.400289708313939
1247,23.999338335838645
1287,24.209081392072546
1327,23.374507156763998
1367,29.181545392906334
1407,23.999869373363258
1447,27.173212912842375
1487,27.751162915926768
1527,23.999936357231979
1567,23.9999176274754
1607,23.9999792460162
1647,25.20726600117149
1687,23.99997819551543
1727,23.993428928080829
1767,25.216876040836909
1807,25.294914345143459
2,1, 7,21, 0,21, 0.00,10.00,SummerDesignDay
8,15.63389147320404
10,137593168.00629343
813,31524797.852180765
2,1, 7,21, 0,21,10.00,20.00,SummerDesignDay
8,15.56810827419793
10,136418922.171529
813,26497499.589181033
2,1, 7,21, 0,21,20.00,30.00,SummerDesignDay
8,15.502170882753524
10,135234327.6562202
813,26459123.20119824
2,1, 7,21, 0,21,30.00,40.00,SummerDesignDay
8,15.436068032613852
10,134037715.10181012
813,26414527.603742668
2,1, 7,21, 0,21,40.00,50.00,SummerDesignDay
8,15.369804371206009
10,132860185.24039766
813,26368627.453582165
2,1, 7,21, 0,21,50.00,60.00,SummerDesignDay
8,15.303384603594449
10,131495761.18026333
813,28770416.335189754
2,1, 7,21, 0,21, 0.00,60.00,SummerDesignDay
1047,25.548158662523208
1087,27.30239074858336
1127,26.505764371290643
1167,26.359218160985966
1207,24.444228095446794
1247,23.950445676411879
1287,24.223101332702769
1327,23.360053866434858
1367,28.309933097383746
1407,23.999771197906033
1447,26.680262238738825
1487,27.02364968960661
1527,23.999903868842325
1567,23.99985855697932
1607,23.999974859446654
1647,25.296728132720465
1687,23.999970969946309
1727,24.062044465733498
1767,24.69061556431446
1807,25.459994598785049
2,1, 7,21, 0,22, 0.00,10.00,SummerDesignDay
8,15.236797685071274
10,86675051.12947095
813,33202711.724777584
2,1, 7,21, 0,22,10.00,20.00,SummerDesignDay
8,15.170047891787942
10,87008545.54245408