Program Version,EnergyPlus, Version 8.9.0-eba93e8e1b, YMD=2019.04.04 17:58
1,5,Environment Title[],Latitude[deg],Longitude[deg],Time Zone[],Elevation[m]
2,8,Day of Simulation[],Month[],Day of Month[],DST Indicator[1=yes 0=no],Hour[],StartMinute[],EndMinute[],DayType
3,5,Cumulative Day of Simulation[],Month[],Day of Month[],DST Indicator[1=yes 0=no],DayType  ! When Daily Report Variables Requested
4,2,Cumulative Days of Simulation[],Month[]  ! When Monthly Report Variables Requested
5,1,Cumulative Days of Simulation[] ! When Run Period Report Variables Requested
6,1,Calendar Year of Simulation[] ! When Annual Report Variables Requested
7,9,Environment,Site Outdoor Air Drybulb Temperature [C] !Monthly [Value,Min,Day,Hour,Minute,Max,Day,Hour,Minute]
8,1,Environment,Site Outdoor Air Wetbulb Temperature [C] !TimeStep
529,1,ALL_ST=ATRIUM - H < 13M_FL=STORY 1_SCH=C,Zone Air Temperature [C] !Hourly
530,7,ALL_ST=ATRIUM - H < 13M_FL=STORY 1_SCH=C,Zone Air Relative Humidity [%] !Daily [Value,Min,Hour,Minute,Max,Hour,Minute]
569,1,ALL_ST=ATRIUM - H > 13M_FL=STORY 1_SCH=C,Zone Air Temperature [C] !Hourly
570,7,ALL_ST=ATRIUM - H > 13M_FL=STORY 1_SCH=C,Zone Air Relative Humidity [%] !Daily [Value,Min,Hour,Minute,Max,Hour,Minute]
609,1,ALL_ST=WHOLEBUILDING_FL=STORY 1_SCH=C,Zone Air Temperature [C] !Hourly
610,7,ALL_ST=WHOLEBUILDING_FL=STORY 1_SCH=C,Zone Air Relative Humidity [%] !Daily [Value,Min,Hour,Minute,Max,Hour,Minute]
649,1,ALL_ST=WHOLEBUILDING_FL=STORY 1_SCH=D,Zone Air Temperature [C] !Hourly
650,7,ALL_ST=WHOLEBUILDING_FL=STORY 1_SCH=D,Zone Air Relative Humidity [%] !Daily [Value,Min,Hour,Minute,Max,Hour,Minute]
689,1,ALL_ST=WHOLEBUILDING_FL=STORY 1_SCH=I,Zone Air Temperature [C] !Hourly
690,7,ALL_ST=WHOLEBUILDING_FL=STORY 1_SCH=I,Zone Air Relative Humidity [%] !Daily [Value,Min,Hour,Minute,Max,Hour,Minute]
10,1,Electricity:Facility [J] !TimeStep
295,1,Gas:Facility [J] !TimeStep
End of Data Dictionary
1,FORT MCMURRAY AP ANN CLG .4% CONDNS DB=>MWB,  56.65,-111.22,  -7.00, 369.10
2,1, 7,21, 0, 1, 0.00,10.00,SummerDesignDay
8,14.218136923962174
10,13024126.071259609
295,12000.0
2,1, 7,21, 0, 1,10.00,20.00,SummerDesignDay
8,14.171982153293495
10,13024126.071259609
295,3420947.591021197
2,1, 7,21, 0, 1,20.00,30.00,SummerDesignDay
8,14.125744780286427
10,13024126.071259609
295,12000.0
2,1, 7,21, 0, 1,30.00,40.00,SummerDesignDay
8,14.079436086331978
10,13024126.071259609
295,3415675.6738293755
2,1, 7,21, 0, 1,40.00,50.00,SummerDesignDay
8,14.033050387896898
10,13024126.071259609
295,3426647.3762383714
2,1, 7,21, 0, 1,50.00,60.00,SummerDesignDay
8,13.986581233564835
10,13024126.071259609
295,12000.0
2,1, 7,21, 0, 1, 0.00,60.00,SummerDesignDay
529,22.31749375206996
569,22.27640632147204
609,22.528128381398405
649,22.162299163814266
689,23.921681277338775
2,1, 7,21, 0, 2, 0.00,10.00,SummerDesignDay
8,13.95555882260429
10,5396689.5511521869
295,3334056.1888712935
2,1, 7,21, 0, 2,10.00,20.00,SummerDesignDay
8,13.924507755336454
10,5396689.5511521869
295,304766.77653416208
2,1, 7,21, 0, 2,20.00,30.00,SummerDesignDay
8,13.893416042989206
10,5396689.5511521869
295,255420.10560896327
2,1, 7,21, 0, 2,30.00,40.00,SummerDesignDay
8,13.862289589689029
10,5396689.5511521869
295,3521911.160508376
2,1, 7,21, 0, 2,40.00,50.00,SummerDesignDay
8,13.831134407608739
10,5396689.5511521869
295,12000.0
2,1, 7,21, 0, 2,50.00,60.00,SummerDesignDay
8,13.799938415548118
10,5396689.5511521869
295,12000.0
2,1, 7,21, 0, 2, 0.00,60.00,SummerDesignDay
529,21.95146669509209
569,21.93808362143732
609,22.132082266085719
649,21.53129435005152
689,22.554700232827046
2,1, 7,21, 0, 3, 0.00,10.00,SummerDesignDay
8,13.776521671948676
10,5396689.5511521869
295,3689055.003814365
2,1, 7,21, 0, 3,10.00,20.00,SummerDesignDay
8,13.753085235778466
10,5396689.5511521869
295,12000.0
2,1, 7,21, 0, 3,20.00,30.00,SummerDesignDay
8,13.729636002354969
10,5396689.5511521869
295,12000.0
2,1, 7,21, 0, 3,30.00,40.00,SummerDesignDay
8,13.706147375533054
10,5396689.5511521869
295,3334696.2218185325
2,1, 7,21, 0, 3,40.00,50.00,SummerDesignDay
8,13.682651961920304
10,5396689.5511521869
295,12000.0
2,1, 7,21, 0, 3,50.00,60.00,SummerDesignDay
8,13.659136670643687
10,5396689.5511521869
295,12000.0
2,1, 7,21, 0, 3, 0.00,60.00,SummerDesignDay
529,21.56704715619001
569,21.577483098186194
609,21.73150190027279
649,21.033097707472164
689,21.284099577172538
2,1, 7,21, 0, 4, 0.00,10.00,SummerDesignDay
8,13.63560137410855
10,5396689.5511521869
295,3331431.8581433317
2,1, 7,21, 0, 4,10.00,20.00,SummerDesignDay
8,13.612040802606578
10,5396689.5511521869
295,12000.0
2,1, 7,21, 0, 4,20.00,30.00,SummerDesignDay
8,13.58846620506876
10,5396689.5511521869
295,12000.0
2,1, 7,21, 0, 4,30.00,40.00,SummerDesignDay
8,13.56487178447336
10,5396689.5511521869
295,3327585.950936535
2,1, 7,21, 0, 4,40.00,50.00,SummerDesignDay
8,13.541257354069103
10,5396689.5511521869
295,12000.0
2,1, 7,21, 0, 4,50.00,60.00,SummerDesignDay
8,13.517617463812285
10,5396689.5511521869
295,12000.0
2,1, 7,21, 0, 4, 0.00,60.00,SummerDesignDay
529,21.249705877491605
569,21.274264419254956
609,21.404482439704226
649,20.669993368653495
689,20.684667340953085
2,1, 7,21, 0, 5, 0.00,10.00,SummerDesignDay
8,13.50185415824011
10,5396689.5511521869
295,3322758.918998383
2,1, 7,21, 0, 5,10.00,20.00,SummerDesignDay
8,13.486076034032447
10,5396689.5511521869
295,12000.0
2,1, 7,21, 0, 5,20.00,30.00,SummerDesignDay
8,13.470289340350983
10,5396689.5511521869
295,2144106.0480713935
2,1, 7,21, 0, 5,30.00,40.00,SummerDesignDay
8,13.454493322631063
10,5396689.5511521869
295,1207007.350416845
2,1, 7,21, 0, 5,40.00,50.00,SummerDesignDay
8,13.438688835118548
10,5396689.5511521869
295,12000.0
2,1, 7,21, 0, 5,50.00,60.00,SummerDesignDay
8,13.422888173889437
10,5396689.5511521869
295,3350269.9204510126
2,1, 7,21, 0, 5, 0.00,60.00,SummerDesignDay
529,20.999362288317703
569,21.031776485802778
609,21.144621241771696
649,20.390648699436374
689,20.32071071832388
2,1, 7,21, 0, 6, 0.00,10.00,SummerDesignDay
8,13.438688835118548
10,5396689.5511521869
295,12000.0
2,1, 7,21, 0, 6,10.00,20.00,SummerDesignDay
8,13.454493322631063
10,5396689.5511521869
295,12000.0
2,1, 7,21, 0, 6,20.00,30.00,SummerDesignDay
8,13.470289340350983
10,5396689.5511521869
295,3349036.0617279584
2,1, 7,21, 0, 6,30.00,40.00,SummerDesignDay
8,13.486076034032447
10,5396689.5511521869
295,12000.0
2,1, 7,21, 0, 6,40.00,50.00,SummerDesignDay
8,13.50185415824011
10,5396689.5511521869
295,12000.0
2,1, 7,21, 0, 6,50.00,60.00,SummerDesignDay
8,13.517617463812285
10,5396689.5511521869
295,3347194.539721164
2,1, 7,21, 0, 6, 0.00,60.00,SummerDesignDay
529,20.82997252620157
569,20.86664751382582
609,20.972585996733704
649,20.222598612960508
689,20.119453103780427
2,1, 7,21, 0, 7, 0.00,10.00,SummerDesignDay
8,13.572736920571789
10,5396689.5511521869
295,12000.0
2,1, 7,21, 0, 7,10.00,20.00,SummerDesignDay
8,13.627748229152554
10,5396689.5511521869
295,12000.0
2,1, 7,21, 0, 7,20.00,30.00,SummerDesignDay
8,13.682651961920304
10,5396689.5511521869
295,3344133.5413941785
2,1, 7,21, 0, 7,30.00,40.00,SummerDesignDay
8,13.737448093244995
10,5396689.5511521869
295,12000.0
2,1, 7,21, 0, 7,40.00,50.00,SummerDesignDay
8,13.792137011831216
10,5396689.5511521869
295,12000.0
2,1, 7,21, 0, 7,50.00,60.00,SummerDesignDay
8,13.846719282840333
10,5396689.5511521869
295,3341267.3393935908
2,1, 7,21, 0, 7, 0.00,60.00,SummerDesignDay
529,20.781938108197669
569,20.820458953906227
609,20.942171013700635
649,20.247135477960926
689,20.132847604238966
2,1, 7,21, 0, 8, 0.00,10.00,SummerDesignDay
8,13.978831900527043
10,5396689.5511521869
295,12000.0
2,1, 7,21, 0, 8,10.00,20.00,SummerDesignDay
8,14.110321014287419
10,5396689.5511521869
295,12000.0
2,1, 7,21, 0, 8,20.00,30.00,SummerDesignDay
8,14.241191509616986
10,5396689.5511521869
295,3338483.741617145
2,1, 7,21, 0, 8,30.00,40.00,SummerDesignDay
8,14.371447531304272
10,5396689.5511521869
295,12000.0
2,1, 7,21, 0, 8,40.00,50.00,SummerDesignDay
8,14.501093766564925
10,5396689.5511521869
295,12000.0
2,1, 7,21, 0, 8,50.00,60.00,SummerDesignDay
8,14.630134792273804
10,5396689.5511521869
295,3335609.4356963129
2,1, 7,21, 0, 8, 0.00,60.00,SummerDesignDay
529,20.913141205614307
569,20.950925076612465
609,21.129240733128357
649,20.57879960315836
689,20.46597340566183
2,1, 7,21, 0, 9, 0.00,10.00,SummerDesignDay
8,14.773641492809972
10,21563622.4346602
295,50818033.75855702
2,1, 7,21, 0, 9,10.00,20.00,SummerDesignDay
8,14.91640948124148
10,21308816.43845959
295,18479987.028302697
2,1, 7,21, 0, 9,20.00,30.00,SummerDesignDay
8,15.05843890714102
10,21319176.29934636
295,7818846.3601638269
2,1, 7,21, 0, 9,30.00,40.00,SummerDesignDay
8,15.199735893563798
10,21253432.58231403
295,3915120.3594513258
2,1, 7,21, 0, 9,40.00,50.00,SummerDesignDay
8,15.340306256439395
10,21380124.629821436
295,7812929.988027652
2,1, 7,21, 0, 9,50.00,60.00,SummerDesignDay
8,15.48015101768072
10,21689258.890477145
295,7820018.607021076
2,1, 7,21, 0, 9, 0.00,60.00,SummerDesignDay
529,22.256718653161927
569,22.24901241381839
609,23.029843662340708
649,22.532212897672875
689,21.141490942725328
2,1, 7,21, 0,10, 0.00,10.00,SummerDesignDay
8,15.60467292907716
10,47696828.028901699
295,3940214.636549814
2,1, 7,21, 0,10,10.00,20.00,SummerDesignDay
8,15.72862731650033
10,52643266.51578605
295,7870846.8759810379
2,1, 7,21, 0,10,20.00,30.00,SummerDesignDay
8,15.852017409284228
10,52012275.54097312
295,7871379.725257427
2,1, 7,21, 0,10,30.00,40.00,SummerDesignDay
8,15.974848118364367
10,52517952.21580952
295,6937447.979756094
2,1, 7,21, 0,10,40.00,50.00,SummerDesignDay
8,16.097123145563505
10,52968250.99442266
295,4876626.919847433
2,1, 7,21, 0,10,50.00,60.00,SummerDesignDay
8,16.218846351168599
10,53192425.61357042
295,7869106.758365908
2,1, 7,21, 0,10, 0.00,60.00,SummerDesignDay
529,23.302214544780129
569,23.307760915556896
609,23.999384432395343
649,23.974996117549894
689,22.24534841563737
2,1, 7,21, 0,11, 0.00,10.00,SummerDesignDay
8,16.325793027093189
10,56399020.61471127
295,10205333.159071925
2,1, 7,21, 0,11,10.00,20.00,SummerDesignDay
8,16.432322158488288
10,57198145.204175028
295,13041059.773257938
2,1, 7,21, 0,11,20.00,30.00,SummerDesignDay
8,16.538424180249178
10,57276483.169958088
295,10096688.174699946
2,1, 7,21, 0,11,30.00,40.00,SummerDesignDay
8,16.644108396469087
10,57676595.196458417
295,13343980.100202978
2,1, 7,21, 0,11,40.00,50.00,SummerDesignDay
8,16.749376736593655
10,58118492.78588413
295,9792430.997302473
2,1, 7,21, 0,11,50.00,60.00,SummerDesignDay
8,16.854232613237156
10,58330832.58002145
295,13648752.919392724
2,1, 7,21, 0,11, 0.00,60.00,SummerDesignDay
529,23.999027461691346
569,23.999096226401666
609,23.999482538952106
649,23.996377716092373
689,23.574889998994779
2,1, 7,21, 0,12, 0.00,10.00,SummerDesignDay
8,16.92390823520069
10,58569274.73053006
295,9931212.756656263
2,1, 7,21, 0,12,10.00,20.00,SummerDesignDay
8,16.99340178950456
10,58797391.5850527
295,13693766.74865264
2,1, 7,21, 0,12,20.00,30.00,SummerDesignDay
8,17.06272006743463
10,59016775.90295969
295,10350744.880977367
2,1, 7,21, 0,12,30.00,40.00,SummerDesignDay
8,17.131853229172639
10,59228821.39007946
295,13281858.551256683
2,1, 7,21, 0,12,40.00,50.00,SummerDesignDay
8,17.200807172194087
10,59433346.95665855
295,10762588.179818346
2,1, 7,21, 0,12,50.00,60.00,SummerDesignDay
8,17.269582116758607
10,59629270.60453505
295,12869614.053575952
2,1, 7,21, 0,12, 0.00,60.00,SummerDesignDay
529,23.999472392840337
569,23.999474223424966
609,23.99956013413861
649,23.995612858557153
689,24.658087352631683
2,1, 7,21, 0,13, 0.00,10.00,SummerDesignDay
8,17.32447360221357
10,60444887.51698099
295,12732114.139675837
2,1, 7,21, 0,13,10.00,20.00,SummerDesignDay
8,17.379251291230806
10,60674517.00872644
295,11659293.516751972
2,1, 7,21, 0,13,20.00,30.00,SummerDesignDay
8,17.433921312061729
10,60843202.67781597
295,14661811.732478664
2,1, 7,21, 0,13,30.00,40.00,SummerDesignDay
8,17.488473222557489
10,61010375.78198797
295,10019604.938184416
2,1, 7,21, 0,13,40.00,50.00,SummerDesignDay
8,17.542913447755134
10,61172817.78262846
295,14415081.36337155
2,1, 7,21, 0,13,50.00,60.00,SummerDesignDay
8,17.59724609886134
10,61333169.315048258
295,12951253.047328156
2,1, 7,21, 0,13, 0.00,60.00,SummerDesignDay
529,23.9990908908587
569,23.999093555848409
609,23.999551732809026
649,23.99562256906687
689,25.413423628915927
2,1, 7,21, 0,14, 0.00,10.00,SummerDesignDay
8,17.6311450462694
10,61449873.16256467
295,11483721.29257221
2,1, 7,21, 0,14,10.00,20.00,SummerDesignDay
8,17.665000449016245
10,61566548.23022876
295,14661641.409101092
2,1, 7,21, 0,14,20.00,30.00,SummerDesignDay
8,17.698812743128934
10,61677359.22524208
295,10196564.088741648
2,1, 7,21, 0,14,30.00,40.00,SummerDesignDay
8,17.732582050940107
10,61785793.02464684
295,14237972.346944914
2,1, 7,21, 0,14,40.00,50.00,SummerDesignDay
8,17.766307345121004
10,61892510.5895189
295,13127284.94730834
2,1, 7,21, 0,14,50.00,60.00,SummerDesignDay
8,17.79999023167558
10,61976179.63785403
295,11307786.67865721
2,1, 7,21, 0,14, 0.00,60.00,SummerDesignDay
529,23.998848256423007
569,23.998851087546666
609,23.999439699930464
649,23.996042944605294
689,25.945117306549706
2,1, 7,21, 0,15, 0.00,10.00,SummerDesignDay
8,17.79999023167558
10,71636222.93581149
295,14662436.462436447
2,1, 7,21, 0,15,10.00,20.00,SummerDesignDay
8,17.79999023167558
10,67576343.05623812
295,10646703.784936857
2,1, 7,21, 0,15,20.00,30.00,SummerDesignDay
8,17.79999023167558
10,65103348.480887819
295,14048823.984679817
2,1, 7,21, 0,15,30.00,40.00,SummerDesignDay
8,17.79999023167558
10,64790448.15353139
295,13310975.589102885
2,1, 7,21, 0,15,40.00,50.00,SummerDesignDay
8,17.79999023167558
10,64994433.639959838
295,11124117.074750254
2,1, 7,21, 0,15,50.00,60.00,SummerDesignDay
8,17.79999023167558
10,64733904.37144409
295,14661318.703296986
2,1, 7,21, 0,15, 0.00,60.00,SummerDesignDay
529,23.99900341591287
569,23.999006099520576
609,23.99950168360262
649,24.006448806018459
689,24.160098328566908
2,1, 7,21, 0,16, 0.00,10.00,SummerDesignDay
8,17.759562446305357
10,74308829.83525683
295,12232105.870561433
2,1, 7,21, 0,16,10.00,20.00,SummerDesignDay
8,17.71907809634183
10,74474624.92929158
295,13124980.30434536
2,1, 7,21, 0,16,20.00,30.00,SummerDesignDay
8,17.67853788661001
10,74391962.99678478
295,15243800.774293019
2,1, 7,21, 0,16,30.00,40.00,SummerDesignDay
8,17.63791796367351
10,74326333.90556336
295,13173665.390700527
2,1, 7,21, 0,16,40.00,50.00,SummerDesignDay
8,17.59724609886134
10,74242559.31914371
295,12233110.51164874
2,1, 7,21, 0,16,50.00,60.00,SummerDesignDay
8,17.55650676726033
10,74152277.55137585
295,15243489.17163172
2,1, 7,21, 0,16, 0.00,60.00,SummerDesignDay
529,23.998546568610654
569,23.99855092298196
609,23.999243489177066
649,23.99595100130421
689,23.99992142095733
2,1, 7,21, 0,17, 0.00,10.00,SummerDesignDay
8,17.50209486331892
10,69363215.3098196
295,9198157.60301335
2,1, 7,21, 0,17,10.00,20.00,SummerDesignDay
8,17.447570789624618
10,69026993.93455611
295,13647892.794245406
2,1, 7,21, 0,17,20.00,30.00,SummerDesignDay
8,17.392929544208135
10,68848070.29135822
295,9095185.296591852
2,1, 7,21, 0,17,30.00,40.00,SummerDesignDay
8,17.33818013976614
10,68653078.00429486
295,11575807.572136304
2,1, 7,21, 0,17,40.00,50.00,SummerDesignDay
8,17.283317298559309
10,68459150.68660572
295,11169779.072415034
2,1, 7,21, 0,17,50.00,60.00,SummerDesignDay
8,17.22833552437677
10,68270145.05420615
295,9100505.597432914
2,1, 7,21, 0,17, 0.00,60.00,SummerDesignDay
529,23.9981451293678
569,23.998144111524927
609,23.999084304190587
649,23.996963746542673
689,23.99983452253531
2,1, 7,21, 0,18, 0.00,10.00,SummerDesignDay
8,17.159453019160176
10,62351395.612251769
295,7746669.772234921
2,1, 7,21, 0,18,10.00,20.00,SummerDesignDay
8,17.090391773337136
10,61785706.206348787
295,5289084.1007552579
2,1, 7,21, 0,18,20.00,30.00,SummerDesignDay
8,17.021151077964786
10,61508033.06891922
295,6152314.770979706
2,1, 7,21, 0,18,30.00,40.00,SummerDesignDay
8,16.951729380464653
10,61219619.375752288
295,5866272.186060167
2,1, 7,21, 0,18,40.00,50.00,SummerDesignDay
8,16.882126503829249
10,60938233.338259149
295,5575105.722255302
2,1, 7,21, 0,18,50.00,60.00,SummerDesignDay
8,16.812341807494034
10,60665953.88085464
295,6434595.226220218
2,1, 7,21, 0,18, 0.00,60.00,SummerDesignDay
529,23.998217390174835
569,23.99820035631592
609,23.999015147663717
649,23.99870521483888
689,23.99980080800403
2,1, 7,21, 0,19, 0.00,10.00,SummerDesignDay
8,16.707321072823203
10,67935568.08444985
295,9764688.97628221
2,1, 7,21, 0,19,10.00,20.00,SummerDesignDay
8,16.601881826644556
10,67962500.54145018
295,8536421.018732852
2,1, 7,21, 0,19,20.00,30.00,SummerDesignDay
8,16.496030555252849
10,67643814.67649338
295,8538811.035289914
2,1, 7,21, 0,19,30.00,40.00,SummerDesignDay
8,16.389760181474104
10,67351182.20719913
295,8541842.817694495
2,1, 7,21, 0,19,40.00,50.00,SummerDesignDay
8,16.283067654262039
10,67043128.86381952
295,8544875.714173994
2,1, 7,21, 0,19,50.00,60.00,SummerDesignDay
8,16.17595057957811
10,66724400.741017069
295,8547880.605777262
2,1, 7,21, 0,19, 0.00,60.00,SummerDesignDay
529,23.99868009650979
569,23.998654526088818
609,23.999095763401657
649,23.999218440307275
689,23.99903891102913
2,1, 7,21, 0,20, 0.00,10.00,SummerDesignDay
8,16.097123145563505
10,65318452.51043692
295,14133247.714454283
2,1, 7,21, 0,20,10.00,20.00,SummerDesignDay
8,16.018070242471564
10,65352729.86958453
295,10114550.515929107
2,1, 7,21, 0,20,20.00,30.00,SummerDesignDay
8,15.938779752340516
10,65150669.77894532
295,13714680.68902046
2,1, 7,21, 0,20,30.00,40.00,SummerDesignDay
8,15.85926152575189
10,64979665.32133444
295,11208772.627584186
2,1, 7,21, 0,20,40.00,50.00,SummerDesignDay
8,15.779503718563929
10,64788978.631148468
295,12619687.771700528
2,1, 7,21, 0,20,50.00,60.00,SummerDesignDay
8,15.699515709672767
10,64588751.13847446
295,12301246.58062429
2,1, 7,21, 0,20, 0.00,60.00,SummerDesignDay
529,23.999331276935977
569,23.999319061930508
609,23.99960196984627
649,23.998697679717563
689,23.996790949757217
2,1, 7,21, 0,21, 0.00,10.00,SummerDesignDay
8,15.63389147320404
10,61304041.75575358
295,11527169.648857203
2,1, 7,21, 0,21,10.00,20.00,SummerDesignDay
8,15.56810827419793
10,61066765.015348497
295,13391885.789712796
2,1, 7,21, 0,21,20.00,30.00,SummerDesignDay
8,15.502170882753524
10,60875455.45328736
295,10436800.431013944
2,1, 7,21, 0,21,30.00,40.00,SummerDesignDay
8,15.436068032613852
10,60677547.29628643
295,14299633.858548809
2,1, 7,21, 0,21,40.00,50.00,SummerDesignDay
8,15.369804371206009
10,60473567.30050085
295,9529328.187097475
2,1, 7,21, 0,21,50.00,60.00,SummerDesignDay
8,15.303384603594449
10,60268737.012127209
295,14298349.725218354
2,1, 7,21, 0,21, 0.00,60.00,SummerDesignDay
529,23.999469194373068
569,23.99947260493732
609,23.99977353588589
649,23.99864148444288
689,23.995462044029279
2,1, 7,21, 0,22, 0.00,10.00,SummerDesignDay
8,15.236797685071274
10,44986814.57329915
295,8701193.78953945
2,1, 7,21, 0,22,10.00,20.00,SummerDesignDay
8,15.170047891787942
10,44747512.061938758
295,8622556.497520585
2,1, 7,21, 0,22,20.00,30.00,SummerDesignDay
8,15.103134826860483
10,44589570.85721063
295,8627136.703003178
2,1, 7,21, 0,22,30.00,40.00,SummerDesignDay
8,15.036063385178485
10,44430814.87739625
295,10978911.36471605
2,1, 7,21, 0,22,40.00,50.00,SummerDesignDay
8,14.968821767219835
10,44273724.405311677
295,10576518.86156672
2,1, 7,21, 0,22,50.00,60.00,SummerDesignDay
8,14.90141525878635
10,44119468.88867805
295,8616945.041009363
2,1, 7,21, 0,22, 0.00,60.00,SummerDesignDay
529,23.67446810535542
569,23.658343428501199
609,23.835651550667028
649,23.99875922159858
689,23.99508342545739
2,1, 7,21, 0,23, 0.00,10.00,SummerDesignDay
8,14.848873673278373
10,33159700.875351434
295,5296890.307498306
2,1, 7,21, 0,23,10.00,20.00,SummerDesignDay
8,14.796237168136719
10,32655514.64852302
295,6236712.208819107
2,1, 7,21, 0,23,20.00,30.00,SummerDesignDay
8,14.743494321455645
10,32467706.795884316
295,6750112.334251317
2,1, 7,21, 0,23,30.00,40.00,SummerDesignDay
8,14.690649975253665
10,32267875.793279578
295,4725680.169477105
2,1, 7,21, 0,23,40.00,50.00,SummerDesignDay
8,14.637704281233117
10,32090731.209424605
295,7651309.310433087
2,1, 7,21, 0,23,50.00,60.00,SummerDesignDay
8,14.584656914839757
10,31895426.82248045
295,3825154.7937762707
2,1, 7,21, 0,23, 0.00,60.00,SummerDesignDay
529,23.1254916569974
569,23.07258492439276
609,23.374426067355043
649,24.00027005359293
689,23.996214530103364
2,1, 7,21, 0,24, 0.00,10.00,SummerDesignDay
8,14.531507212058875
10,26081895.664323089
295,3700647.6325412786
2,1, 7,21, 0,24,10.00,20.00,SummerDesignDay
8,14.47825496413355
10,25869704.17724074
295,7350056.808689112
2,1, 7,21, 0,24,20.00,30.00,SummerDesignDay
8,14.4249000133173
10,25783113.422312954
295,3679778.60682189
2,1, 7,21, 0,24,30.00,40.00,SummerDesignDay
8,14.371447531304272
10,25657773.55236629
295,3682484.279417288
2,1, 7,21, 0,24,40.00,50.00,SummerDesignDay
8,14.31788619902223
10,25554956.311624353
295,4012761.945973158
2,1, 7,21, 0,24,50.00,60.00,SummerDesignDay
8,14.264220970176066
10,25448204.572930267
295,7625120.473438811
2,1, 7,21, 0,24, 0.00,60.00,SummerDesignDay
529,22.726037066213537
569,22.66331627603267
609,22.965742372694206
649,23.25040966296344
689,23.99777386156829
3,1, 7,21, 0,SummerDesignDay
530,55.77028002110248,47.56619767394134,10,60,61.608688306116999,18,20
570,55.74524250546471,47.53232035330818,10,60,61.56880100149452,18,20
610,48.06750839177965,43.70796263038392,11,40,54.59451775169022, 7,20
650,54.851077992614,48.38286067514204,23,60,60.4519957626365,16,20
690,51.36417922178561,40.00084230072354,14,60,57.9016584200188, 6,50
4,1, 7
7,22.2505,16.5,21, 5,60,28.9,21,14,60
1,FORT MCMURRAY AP ANN HTG 99.6% CONDNS DB,  56.65,-111.22,  -7.00, 369.10
2,1, 1,21, 0, 1, 0.00,10.00,WinterDesignDay
8,-36.2
10,13024130.236927402
295,205938751.00342534
2,1, 1,21, 0, 1,10.00,20.00,WinterDesignDay
8,-36.2
10,13024129.649692854
295,211567134.22797079
2,1, 1,21, 0, 1,20.00,30.00,WinterDesignDay
8,-36.2
10,13024129.157556933
295,213322447.65765686
2,1, 1,21, 0, 1,30.00,40.00,WinterDesignDay
8,-36.2
10,13024128.955711678
295,210750711.91368405
2,1, 1,21, 0, 1,40.00,50.00,WinterDesignDay
8,-36.2
10,13024132.28480341
295,215627232.74154783
2,1, 1,21, 0, 1,50.00,60.00,WinterDesignDay
8,-36.2
10,13024131.633391751
295,216792685.91775639
2,1, 1,21, 0, 1, 0.00,60.00,WinterDesignDay
529,18.1756938417483
569,18.0735744151997
609,17.999999748737609
649,18.000001386664
689,19.873545513790324
2,1, 1,21, 0, 2, 0.00,10.00,WinterDesignDay
8,-36.2
10,5396697.021709945
295,215822896.78587023
2,1, 1,21, 0, 2,10.00,20.00,WinterDesignDay
8,-36.2
10,5396696.505638831
295,230072283.11552347
2,1, 1,21, 0, 2,20.00,30.00,WinterDesignDay
8,-36.2
10,5396695.455665812
295,232838209.94752939
2,1, 1,21, 0, 2,30.00,40.00,WinterDesignDay
8,-36.2
10,5396694.844668247
295,228415112.64764414
2,1, 1,21, 0, 2,40.00,50.00,WinterDesignDay
8,-36.2
10,5396694.233714263
295,234278670.90859408
2,1, 1,21, 0, 2,50.00,60.00,WinterDesignDay
8,-36.2
10,5396693.880754545
295,231586882.41343893
2,1, 1,21, 0, 2, 0.00,60.00,WinterDesignDay
529,18.000054796866136
569,17.99999912296686
609,17.999981478670894
649,18.000001355208313
689,18.076873627210149
2,1, 1,21, 0, 3, 0.00,10.00,WinterDesignDay
8,-36.2
10,5396693.554773392
295,235395280.5549242
2,1, 1,21, 0, 3,10.00,20.00,WinterDesignDay
8,-36.2
10,5396693.269797606
295,232415940.51186566
2,1, 1,21, 0, 3,20.00,30.00,WinterDesignDay
8,-36.2
10,5396693.011832311
295,232695384.75974966
2,1, 1,21, 0, 3,30.00,40.00,WinterDesignDay
8,-36.2
10,5396692.210018874
295,236264404.54439266
2,1, 1,21, 0, 3,40.00,50.00,WinterDesignDay
8,-36.2
10,5396692.020071529
295,233103927.59826286
2,1, 1,21, 0, 3,50.00,60.00,WinterDesignDay
8,-36.2
10,5396691.830130479
295,236601641.85054047
2,1, 1,21, 0, 3, 0.00,60.00,WinterDesignDay
529,17.999999386034419
569,17.999999065628534
609,17.999982910363586
649,17.999985235479416
689,17.99990430883339
2,1, 1,21, 0, 4, 0.00,10.00,WinterDesignDay
8,-36.2
10,5396691.830107275
295,233363179.57293178
2,1, 1,21, 0, 4,10.00,20.00,WinterDesignDay
8,-36.2
10,5396691.640173974
295,233453797.11750553
2,1, 1,21, 0, 4,20.00,30.00,WinterDesignDay
8,-36.2
10,5396691.640154487
295,236876425.92000086
2,1, 1,21, 0, 4,30.00,40.00,WinterDesignDay
8,-36.2
10,5396691.450228282
295,233593273.43199183
2,1, 1,21, 0, 4,40.00,50.00,WinterDesignDay
8,-36.2
10,5396691.450212186
295,236994465.90752084
2,1, 1,21, 0, 4,50.00,60.00,WinterDesignDay
8,-36.2
10,5396691.260292427
295,233689094.30029197
2,1, 1,21, 0, 4, 0.00,60.00,WinterDesignDay
529,18.00000015910359
569,18.00000035854875
609,17.99998765052823
649,17.999976680077326
689,17.999953071404549
2,1, 1,21, 0, 5, 0.00,10.00,WinterDesignDay
8,-36.2
10,5396691.260279395
295,233724603.91811804
2,1, 1,21, 0, 5,10.00,20.00,WinterDesignDay
8,-36.2
10,5396691.070365434
295,237101415.42767055
2,1, 1,21, 0, 5,20.00,30.00,WinterDesignDay
8,-36.2
10,5396691.070355141
295,233788507.858048
2,1, 1,21, 0, 5,30.00,40.00,WinterDesignDay
8,-36.2
10,5396691.07034485
295,235209377.04333867
2,1, 1,21, 0, 5,40.00,50.00,WinterDesignDay
8,-36.2
10,5396690.880437328
295,235766380.63263936
2,1, 1,21, 0, 5,50.00,60.00,WinterDesignDay
8,-36.2
10,5396690.880429451
295,233836831.4857787
2,1, 1,21, 0, 5, 0.00,60.00,WinterDesignDay
529,18.000000409344719
569,18.000000503659128
609,17.999990598698344
649,17.999981889909486
689,17.99997426551594
2,1, 1,21, 0, 6, 0.00,10.00,WinterDesignDay
8,-36.2
10,5396690.690526431
295,237194747.33390446
2,1, 1,21, 0, 6,10.00,20.00,WinterDesignDay
8,-36.2
10,5396690.690520647
295,233863287.03404249
2,1, 1,21, 0, 6,20.00,30.00,WinterDesignDay
8,-36.2
10,5396689.5511521869
295,233872329.91034246
2,1, 1,21, 0, 6,30.00,40.00,WinterDesignDay
8,-36.2
10,5396689.5511521869
295,237214334.67159785
2,1, 1,21, 0, 6,40.00,50.00,WinterDesignDay
8,-36.2
10,5396689.5511521869
295,233891469.9260801
2,1, 1,21, 0, 6,50.00,60.00,WinterDesignDay
8,-36.2
10,5396689.5511521869
295,237247357.6310438
2,1, 1,21, 0, 6, 0.00,60.00,WinterDesignDay
529,17.999979327794259
569,17.99997939383715
609,17.999992581555295
649,17.999984564293489
689,17.99998467402997
2,1, 1,21, 0, 7, 0.00,10.00,WinterDesignDay
8,-36.2
10,5396689.5511521869
295,233909671.32662983
2,1, 1,21, 0, 7,10.00,20.00,WinterDesignDay
8,-36.2
10,5396689.5511521869
295,233914245.07149459
2,1, 1,21, 0, 7,20.00,30.00,WinterDesignDay
8,-36.2
10,5396689.5511521869
295,237253719.66020603
2,1, 1,21, 0, 7,30.00,40.00,WinterDesignDay
8,-36.2
10,5396689.5511521869
295,233925580.047539
2,1, 1,21, 0, 7,40.00,50.00,WinterDesignDay
8,-36.2
10,5396689.5511521869
295,237279644.33342666
2,1, 1,21, 0, 7,50.00,60.00,WinterDesignDay
8,-36.2
10,5396689.5511521869
295,233937304.06132717
2,1, 1,21, 0, 7, 0.00,60.00,WinterDesignDay
529,17.99997602156834
569,17.99997606774429
609,17.999993953300714
649,17.999985978407865
689,17.999989991491629
2,1, 1,21, 0, 8, 0.00,10.00,WinterDesignDay
8,-36.2
10,5467165.6673024869
295,341014139.2468581
2,1, 1,21, 0, 8,10.00,20.00,WinterDesignDay
8,-36.2
10,5424096.929655081
295,288477714.58521267
2,1, 1,21, 0, 8,20.00,30.00,WinterDesignDay
8,-36.2
10,5396689.5511521869
295,248926447.69544889
2,1, 1,21, 0, 8,30.00,40.00,WinterDesignDay
8,-36.2
10,5396689.5511521869
295,259426518.38989235
2,1, 1,21, 0, 8,40.00,50.00,WinterDesignDay
8,-36.2
10,5396689.5511521869
295,251612278.03631497
2,1, 1,21, 0, 8,50.00,60.00,WinterDesignDay
8,-36.2
10,5396689.5511521869
295,250105180.6949407
2,1, 1,21, 0, 8, 0.00,60.00,WinterDesignDay
529,19.83275322267868
569,19.833103363243926
609,19.937935857837699
649,19.953491874577954
689,17.999993725731735
2,1, 1,21, 0, 9, 0.00,10.00,WinterDesignDay
8,-36.2
10,21335654.717822713
295,345785920.42293718
2,1, 1,21, 0, 9,10.00,20.00,WinterDesignDay
8,-36.2
10,21308247.339319819
295,291605773.8850049
2,1, 1,21, 0, 9,20.00,30.00,WinterDesignDay
8,-36.2
10,21253432.58231403
295,255462178.77688179
2,1, 1,21, 0, 9,30.00,40.00,WinterDesignDay
8,-36.2
10,21253432.58231403
295,260409274.19635166
2,1, 1,21, 0, 9,40.00,50.00,WinterDesignDay
8,-36.2
10,21253434.074687788
295,256009201.8340623
2,1, 1,21, 0, 9,50.00,60.00,WinterDesignDay
8,-36.2
10,21253434.34601721
295,252674371.48392803
2,1, 1,21, 0, 9, 0.00,60.00,WinterDesignDay
529,21.822480014727224
569,21.822906340024134
609,21.943827056147457
649,21.9521498160306
689,17.999992776526076
2,1, 1,21, 0,10, 0.00,10.00,WinterDesignDay
8,-36.2
10,42102981.88036764
295,224396984.37053056
2,1, 1,21, 0,10,10.00,20.00,WinterDesignDay
8,-36.2
10,42020760.78162001
295,221025237.91970659
2,1, 1,21, 0,10,20.00,30.00,WinterDesignDay
8,-36.2
10,42020760.91120914
295,221372607.83901573
2,1, 1,21, 0,10,30.00,40.00,WinterDesignDay
8,-36.2
10,42020761.17038944
295,220733792.7942679
2,1, 1,21, 0,10,40.00,50.00,WinterDesignDay
8,-36.2
10,42020761.29997231
295,220074742.181381
2,1, 1,21, 0,10,50.00,60.00,WinterDesignDay
8,-36.2
10,42020762.761293668
295,219525697.73035623
2,1, 1,21, 0,10, 0.00,60.00,WinterDesignDay
529,21.999981264335586
569,21.99998078362722
609,22.000000513744444
649,22.217240334223999
689,17.999989294391317
2,1, 1,21, 0,11, 0.00,10.00,WinterDesignDay
8,-36.2
10,42020765.87408832
295,219137610.98983795
2,1, 1,21, 0,11,10.00,20.00,WinterDesignDay
8,-36.2
10,42020767.11874623
295,215462964.3491708
2,1, 1,21, 0,11,20.00,30.00,WinterDesignDay
8,-36.2
10,42020768.68304234
295,216806972.16528083
2,1, 1,21, 0,11,30.00,40.00,WinterDesignDay
8,-36.2
10,42020770.11761211
295,218145572.2331556
2,1, 1,21, 0,11,40.00,50.00,WinterDesignDay
8,-36.2
10,42020771.23216324
295,215350817.983269
2,1, 1,21, 0,11,50.00,60.00,WinterDesignDay
8,-36.2
10,42020772.346576
295,215096809.13872183
2,1, 1,21, 0,11, 0.00,60.00,WinterDesignDay
529,21.999999849109828
569,21.999999397089174
609,21.999999871563145
649,22.613607055878835
689,17.999989020812149
2,1, 1,21, 0,12, 0.00,10.00,WinterDesignDay
8,-36.2
10,42020773.525568429
295,217622518.55161027
2,1, 1,21, 0,12,10.00,20.00,WinterDesignDay
8,-36.2
10,42020774.54446116
295,216284678.34384028
2,1, 1,21, 0,12,20.00,30.00,WinterDesignDay
8,-36.2
10,42020775.62791132
295,213410928.32591246