Program Version,EnergyPlus, Version 8.9.0-eba93e8e1b, YMD=2019.03.20 17:57
1,5,Environment Title[],Latitude[deg],Longitude[deg],Time Zone[],Elevation[m]
2,8,Day of Simulation[],Month[],Day of Month[],DST Indicator[1=yes 0=no],Hour[],StartMinute[],EndMinute[],DayType
3,5,Cumulative Day of Simulation[],Month[],Day of Month[],DST Indicator[1=yes 0=no],DayType  ! When Daily Report Variables Requested
4,2,Cumulative Days of Simulation[],Month[]  ! When Monthly Report Variables Requested
5,1,Cumulative Days of Simulation[] ! When Run Period Report Variables Requested
6,1,Calendar Year of Simulation[] ! When Annual Report Variables Requested
7,9,Environment,Site Outdoor Air Drybulb Temperature [C] !Monthly [Value,Min,Day,Hour,Minute,Max,Day,Hour,Minute]
8,1,Environment,Site Outdoor Air Wetbulb Temperature [C] !TimeStep
875,1,GYM - FITNESS-SPACE FUNCTION ZN,Zone Air Temperature [C] !Hourly
876,7,GYM - FITNESS-SPACE FUNCTION ZN,Zone Air Relative Humidity [%] !Daily [Value,Min,Hour,Minute,Max,Hour,Minute]
915,1,GYM - PLAY-SPACE FUNCTION ZN,Zone Air Temperature [C] !Hourly
916,7,GYM - PLAY-SPACE FUNCTION ZN,Zone Air Relative Humidity [%] !Daily [Value,Min,Hour,Minute,Max,Hour,Minute]
955,1,HOSPITAL - EMERGENCY-SPACE FUNCTION ZN,Zone Air Temperature [C] !Hourly
956,7,HOSPITAL - EMERGENCY-SPACE FUNCTION ZN,Zone Air Relative Humidity [%] !Daily [Value,Min,Hour,Minute,Max,Hour,Minute]
995,1,HOSPITAL - EXAM-SPACE FUNCTION ZN,Zone Air Temperature [C] !Hourly
996,7,HOSPITAL - EXAM-SPACE FUNCTION ZN,Zone Air Relative Humidity [%] !Daily [Value,Min,Hour,Minute,Max,Hour,Minute]
1035,1,HOSPITAL - LAUNDRY/WASHING-SPACE FUNCTION ZN,Zone Air Temperature [C] !Hourly
1036,7,HOSPITAL - LAUNDRY/WASHING-SPACE FUNCTION ZN,Zone Air Relative Humidity [%] !Daily [Value,Min,Hour,Minute,Max,Hour,Minute]
1075,1,HOSPITAL - LOUNGE/RECREATION-SPACE FUNCTION ZN,Zone Air Temperature [C] !Hourly
1076,7,HOSPITAL - LOUNGE/RECREATION-SPACE FUNCTION ZN,Zone Air Relative Humidity [%] !Daily [Value,Min,Hour,Minute,Max,Hour,Minute]
1115,1,HOSPITAL - MEDICAL SUPPLY - OCCSENS-SPACE FUNCTION ZN,Zone Air Temperature [C] !Hourly
1116,7,HOSPITAL - MEDICAL SUPPLY - OCCSENS-SPACE FUNCTION ZN,Zone Air Relative Humidity [%] !Daily [Value,Min,Hour,Minute,Max,Hour,Minute]
1155,1,HOSPITAL - MEDICAL SUPPLY-SPACE FUNCTION ZN,Zone Air Temperature [C] !Hourly
1156,7,HOSPITAL - MEDICAL SUPPLY-SPACE FUNCTION ZN,Zone Air Relative Humidity [%] !Daily [Value,Min,Hour,Minute,Max,Hour,Minute]
1195,1,HOSPITAL - NURSERY-SPACE FUNCTION ZN,Zone Air Temperature [C] !Hourly
1196,7,HOSPITAL - NURSERY-SPACE FUNCTION ZN,Zone Air Relative Humidity [%] !Daily [Value,Min,Hour,Minute,Max,Hour,Minute]
1235,1,HOSPITAL - NURSES STATION-SPACE FUNCTION ZN,Zone Air Temperature [C] !Hourly
1236,7,HOSPITAL - NURSES STATION-SPACE FUNCTION ZN,Zone Air Relative Humidity [%] !Daily [Value,Min,Hour,Minute,Max,Hour,Minute]
1275,1,HOSPITAL - OPERATING ROOM-SPACE FUNCTION ZN,Zone Air Temperature [C] !Hourly
1276,7,HOSPITAL - OPERATING ROOM-SPACE FUNCTION ZN,Zone Air Relative Humidity [%] !Daily [Value,Min,Hour,Minute,Max,Hour,Minute]
1315,1,HOSPITAL - PATIENT ROOM-SPACE FUNCTION ZN,Zone Air Temperature [C] !Hourly
1316,7,HOSPITAL - PATIENT ROOM-SPACE FUNCTION ZN,Zone Air Relative Humidity [%] !Daily [Value,Min,Hour,Minute,Max,Hour,Minute]
1355,1,HOSPITAL - PHARMACY-SPACE FUNCTION ZN,Zone Air Temperature [C] !Hourly
1356,7,HOSPITAL - PHARMACY-SPACE FUNCTION ZN,Zone Air Relative Humidity [%] !Daily [Value,Min,Hour,Minute,Max,Hour,Minute]
1395,1,HOSPITAL - PHYSICAL THERAPY-SPACE FUNCTION ZN,Zone Air Temperature [C] !Hourly
1396,7,HOSPITAL - PHYSICAL THERAPY-SPACE FUNCTION ZN,Zone Air Relative Humidity [%] !Daily [Value,Min,Hour,Minute,Max,Hour,Minute]
1435,1,HOSPITAL - RADIOLOGY/IMAGING-SPACE FUNCTION ZN,Zone Air Temperature [C] !Hourly
1436,7,HOSPITAL - RADIOLOGY/IMAGING-SPACE FUNCTION ZN,Zone Air Relative Humidity [%] !Daily [Value,Min,Hour,Minute,Max,Hour,Minute]
1475,1,HOSPITAL - RECOVERY-SPACE FUNCTION ZN,Zone Air Temperature [C] !Hourly
1476,7,HOSPITAL - RECOVERY-SPACE FUNCTION ZN,Zone Air Relative Humidity [%] !Daily [Value,Min,Hour,Minute,Max,Hour,Minute]
1515,1,HOSPITAL CORR. < 2.4M-SCH-A-SPACE FUNCTION ZN,Zone Air Temperature [C] !Hourly
1516,7,HOSPITAL CORR. < 2.4M-SCH-A-SPACE FUNCTION ZN,Zone Air Relative Humidity [%] !Daily [Value,Min,Hour,Minute,Max,Hour,Minute]
1555,1,HOSPITAL CORR. < 2.4M-SCH-B-SPACE FUNCTION ZN,Zone Air Temperature [C] !Hourly
1556,7,HOSPITAL CORR. < 2.4M-SCH-B-SPACE FUNCTION ZN,Zone Air Relative Humidity [%] !Daily [Value,Min,Hour,Minute,Max,Hour,Minute]
1595,1,HOSPITAL CORR. < 2.4M-SCH-C-SPACE FUNCTION ZN,Zone Air Temperature [C] !Hourly
1596,7,HOSPITAL CORR. < 2.4M-SCH-C-SPACE FUNCTION ZN,Zone Air Relative Humidity [%] !Daily [Value,Min,Hour,Minute,Max,Hour,Minute]
1635,1,HOSPITAL CORR. < 2.4M-SCH-D-SPACE FUNCTION ZN,Zone Air Temperature [C] !Hourly
1636,7,HOSPITAL CORR. < 2.4M-SCH-D-SPACE FUNCTION ZN,Zone Air Relative Humidity [%] !Daily [Value,Min,Hour,Minute,Max,Hour,Minute]
10,1,Electricity:Facility [J] !TimeStep
1786,1,DistrictCooling:Facility [J] !TimeStep
1749,1,DistrictHeating:Facility [J] !TimeStep
End of Data Dictionary
1,FORT MCMURRAY AP ANN CLG .4% CONDNS DB=>MWB,  56.65,-111.22,  -7.00, 369.10
2,1, 7,21, 0, 1, 0.00,10.00,SummerDesignDay
8,14.218136923962174
10,260751454.89325483
1749,0.0
1786,117254580.59278515
2,1, 7,21, 0, 1,10.00,20.00,SummerDesignDay
8,14.171982153293495
10,260751454.89325483
1749,0.0
1786,112210210.86087519
2,1, 7,21, 0, 1,20.00,30.00,SummerDesignDay
8,14.125744780286427
10,260751454.89325483
1749,1696592.3924439869
1786,107193474.00878082
2,1, 7,21, 0, 1,30.00,40.00,SummerDesignDay
8,14.079436086331978
10,260751454.89325483
1749,2949113.9058996106
1786,102169761.86541575
2,1, 7,21, 0, 1,40.00,50.00,SummerDesignDay
8,14.033050387896898
10,260751454.89325483
1749,3967288.000177769
1786,97142648.55746871
2,1, 7,21, 0, 1,50.00,60.00,SummerDesignDay
8,13.986581233564835
10,260751454.89325483
1749,5250839.405653447
1786,92114182.28978504
2,1, 7,21, 0, 1, 0.00,60.00,SummerDesignDay
875,22.062424802157286
915,24.00000000000004
955,23.99999999999999
995,24.13692060600737
1035,21.933278300034926
1075,24.00000000000004
1115,24.000000000000033
1155,23.99999999999997
1195,24.000000000000026
1235,24.000000000000019
1275,23.515843218139893
1315,24.000000000000015
1355,22.749914732854419
1395,21.78310738522084
1435,24.000000000000015
1475,22.791149708522256
1515,25.08363995304323
1555,24.000000000000033
1595,24.6832162754153
1635,24.283621733573154
2,1, 7,21, 0, 2, 0.00,10.00,SummerDesignDay
8,13.95555882260429
10,236901653.3824539
1749,13602753.164665036
1786,60342410.46549773
2,1, 7,21, 0, 2,10.00,20.00,SummerDesignDay
8,13.924507755336454
10,236901653.3824539
1749,15015516.898082968
1786,57408756.982855778
2,1, 7,21, 0, 2,20.00,30.00,SummerDesignDay
8,13.893416042989206
10,236901653.3824539
1749,15881304.610948453
1786,54471060.49454076
2,1, 7,21, 0, 2,30.00,40.00,SummerDesignDay
8,13.862289589689029
10,236901653.3824539
1749,16750626.010176382
1786,51546441.92970407
2,1, 7,21, 0, 2,40.00,50.00,SummerDesignDay
8,13.831134407608739
10,236901653.3824539
1749,17590156.365963017
1786,48629814.43816905
2,1, 7,21, 0, 2,50.00,60.00,SummerDesignDay
8,13.799938415548118
10,236901653.3824539
1749,18413326.487511513
1786,45721842.03264269
2,1, 7,21, 0, 2, 0.00,60.00,SummerDesignDay
875,22.000010615734408
915,24.324352121234609
955,24.000000000000033
995,23.83011600367877
1035,21.447122605644613
1075,23.877167422841187
1115,24.000000000000015
1155,23.999999999999998
1195,24.0
1235,24.000000000000026
1275,23.154267867830645
1315,23.999999999999984
1355,22.437348164790696
1395,21.305528114116695
1435,24.000000000000005
1475,22.30266239094397
1515,24.79630810530364
1555,24.650554438431059
1595,24.50346240503916
1635,24.136539815737725
2,1, 7,21, 0, 3, 0.00,10.00,SummerDesignDay
8,13.776521671948676
10,213051851.87165294
1749,0.0
1786,43364681.09866427
2,1, 7,21, 0, 3,10.00,20.00,SummerDesignDay
8,13.753085235778466
10,213051851.87165294
1749,0.0
1786,40962552.17350738
2,1, 7,21, 0, 3,20.00,30.00,SummerDesignDay
8,13.729636002354969
10,213051851.87165294
1749,0.0
1786,38512071.29618026
2,1, 7,21, 0, 3,30.00,40.00,SummerDesignDay
8,13.706147375533054
10,213051851.87165294
1749,0.0
1786,36028888.22041464
2,1, 7,21, 0, 3,40.00,50.00,SummerDesignDay
8,13.682651961920304
10,213051851.87165294
1749,0.0
1786,33550477.809102283
2,1, 7,21, 0, 3,50.00,60.00,SummerDesignDay
8,13.659136670643687
10,213051851.87165294
1749,0.0
1786,31406177.17927596
2,1, 7,21, 0, 3, 0.00,60.00,SummerDesignDay
875,20.31924997646883
915,23.82924895818091
955,23.99840495789825
995,23.570296432310007
1035,21.04818596451797
1075,23.293821127156276
1115,24.000000000000019
1155,24.0
1195,24.000000000000044
1235,24.00000000000003
1275,22.881664324558974
1315,24.00000000000003
1355,22.186928432544595
1395,20.919273782315178
1435,24.00000000000001
1475,21.92059717839705
1515,24.53483565582853
1555,24.581304606276434
1595,24.350883604244478
1635,24.014692436900547
2,1, 7,21, 0, 4, 0.00,10.00,SummerDesignDay
8,13.63560137410855
10,213051851.87165294
1749,0.0
1786,29516866.615455126
2,1, 7,21, 0, 4,10.00,20.00,SummerDesignDay
8,13.612040802606578
10,213051851.87165294
1749,0.0
1786,27625533.95918104
2,1, 7,21, 0, 4,20.00,30.00,SummerDesignDay
8,13.58846620506876
10,213051851.87165294
1749,0.0
1786,25818093.703915679
2,1, 7,21, 0, 4,30.00,40.00,SummerDesignDay
8,13.56487178447336
10,213051851.87165294
1749,0.0
1786,24154435.891868503
2,1, 7,21, 0, 4,40.00,50.00,SummerDesignDay
8,13.541257354069103
10,213051851.87165294
1749,0.0
1786,22492561.99983906
2,1, 7,21, 0, 4,50.00,60.00,SummerDesignDay
8,13.517617463812285
10,213051851.87165294
1749,0.0
1786,20832738.824825895
2,1, 7,21, 0, 4, 0.00,60.00,SummerDesignDay
875,19.504745013545045
915,23.379849578799818
955,23.851777821022563
995,23.310369040715988
1035,20.65894741246188
1075,22.886738477011649
1115,24.00000000000001
1155,23.982636039751964
1195,24.000000000000026
1235,24.00000000000003
1275,22.63165191922432
1315,24.0
1355,21.94487302640761
1395,20.547801606649164
1435,24.00000000000003
1475,21.555890744077236
1515,24.2552803575351
1555,24.265820036977308
1595,24.18969674867383
1635,23.891242798629944
2,1, 7,21, 0, 5, 0.00,10.00,SummerDesignDay
8,13.50185415824011
10,213051851.87165294
1749,0.0
1786,19546700.08820281
2,1, 7,21, 0, 5,10.00,20.00,SummerDesignDay
8,13.486076034032447
10,213051851.87165294
1749,0.0
1786,18499546.928434858
2,1, 7,21, 0, 5,20.00,30.00,SummerDesignDay
8,13.470289340350983
10,213051851.87165294
1749,0.0
1786,17666275.79827959
2,1, 7,21, 0, 5,30.00,40.00,SummerDesignDay
8,13.454493322631063
10,213051851.87165294
1749,0.0
1786,16840968.336130557
2,1, 7,21, 0, 5,40.00,50.00,SummerDesignDay
8,13.438688835118548
10,213051851.87165294
1749,0.0
1786,16027628.829309263
2,1, 7,21, 0, 5,50.00,60.00,SummerDesignDay
8,13.422888173889437
10,213051851.87165294
1749,0.0
1786,15228263.895127058
2,1, 7,21, 0, 5, 0.00,60.00,SummerDesignDay
875,19.22087135324551
915,23.222032869973288
955,23.74116420395119
995,23.14595607513859
1035,20.393568492606876
1075,22.67843297161221
1115,23.963029866333057
1155,23.870933202805376
1195,24.00000000000003
1235,24.000000000000019
1275,22.42384893160072
1315,24.000000000000033
1355,21.794310925342545
1395,20.304197634937969
1435,23.999999999999998
1475,21.4477425718854
1515,24.009814360563227
1555,24.07736469059557
1595,24.154680248601495
1635,23.78631563844333
2,1, 7,21, 0, 6, 0.00,10.00,SummerDesignDay
8,13.438688835118548
10,213051851.87165294
1749,0.0
1786,15640498.578215708
2,1, 7,21, 0, 6,10.00,20.00,SummerDesignDay
8,13.454493322631063
10,213051851.87165294
1749,0.0
1786,16052230.491630912
2,1, 7,21, 0, 6,20.00,30.00,SummerDesignDay
8,13.470289340350983
10,213051851.87165294
1749,0.0
1786,16474579.711650135
2,1, 7,21, 0, 6,30.00,40.00,SummerDesignDay
8,13.486076034032447
10,213051851.87165294
1749,0.0
1786,17145923.254755785
2,1, 7,21, 0, 6,40.00,50.00,SummerDesignDay
8,13.50185415824011
10,213051851.87165294
1749,0.0
1786,18427114.366574285
2,1, 7,21, 0, 6,50.00,60.00,SummerDesignDay
8,13.517617463812285
10,213051851.87165294
1749,0.0
1786,19087574.797502005
2,1, 7,21, 0, 6, 0.00,60.00,SummerDesignDay
875,19.256792693161125
915,23.497736590221249
955,23.95615426421747
995,23.122573294488036
1035,20.443177701319898
1075,22.55696684704249
1115,23.868934254066916
1155,23.819565878336929
1195,24.000000000000047
1235,23.999999999999984
1275,22.377533020508598
1315,24.000000000000015
1355,21.792154710131869
1395,20.384931860390166
1435,24.000000000000019
1475,22.04079733457553
1515,23.84071742509939
1555,23.96440735947766
1595,24.548097442394025
1635,23.737897011526287
2,1, 7,21, 0, 7, 0.00,10.00,SummerDesignDay
8,13.572736920571789
10,213051851.87165294
1749,0.0
1786,22228674.47066431
2,1, 7,21, 0, 7,10.00,20.00,SummerDesignDay
8,13.627748229152554
10,213051851.87165294
1749,0.0
1786,25422166.8840878
2,1, 7,21, 0, 7,20.00,30.00,SummerDesignDay
8,13.682651961920304
10,213051851.87165294
1749,0.0
1786,28736206.057813549
2,1, 7,21, 0, 7,30.00,40.00,SummerDesignDay
8,13.737448093244995
10,213051851.87165294
1749,0.0
1786,32183721.561794148
2,1, 7,21, 0, 7,40.00,50.00,SummerDesignDay
8,13.792137011831216
10,213051851.87165294
1749,0.0
1786,36133023.62014518
2,1, 7,21, 0, 7,50.00,60.00,SummerDesignDay
8,13.846719282840333
10,213051851.87165294
1749,0.0
1786,41688128.9233041
2,1, 7,21, 0, 7, 0.00,60.00,SummerDesignDay
875,19.753900938497574
915,23.98051193354091
955,23.999993705938036
995,23.1529148518223
1035,20.902384005275356
1075,22.596741393964206
1115,23.938122053488838
1155,23.938094623688135
1195,24.00000000000001
1235,23.999999999999976
1275,22.640285265985708
1315,24.000000000000033
1355,21.888023984728365
1395,20.88862931975913
1435,24.00000000000006
1475,23.005017677871625
1515,23.79952182961404
1555,23.964412189698888
1595,25.074102088076889
1635,23.797894779915756
2,1, 7,21, 0, 8, 0.00,10.00,SummerDesignDay
8,13.978831900527043
10,216342449.48624663
1749,0.0
1786,77168119.23847717
2,1, 7,21, 0, 8,10.00,20.00,SummerDesignDay
8,14.110321014287419
10,216342449.48624663
1749,0.0
1786,63850520.012514088
2,1, 7,21, 0, 8,20.00,30.00,SummerDesignDay
8,14.241191509616986
10,216342449.48624663
1749,0.0
1786,96873612.50241819
2,1, 7,21, 0, 8,30.00,40.00,SummerDesignDay
8,14.371447531304272
10,216342449.48624663
1749,0.0
1786,114305034.31086615
2,1, 7,21, 0, 8,40.00,50.00,SummerDesignDay
8,14.501093766564925
10,216342449.48624663
1749,0.0
1786,133105878.84155707
2,1, 7,21, 0, 8,50.00,60.00,SummerDesignDay
8,14.630134792273804
10,216342449.48624663
1749,0.0
1786,150365298.8762024
2,1, 7,21, 0, 8, 0.00,60.00,SummerDesignDay
875,20.970210292473288
915,24.63302293049748
955,23.99999999998964
995,23.488153030226724
1035,21.9947659357764
1075,22.887403143806098
1115,23.999998707046485
1155,23.999999578478144
1195,24.00000000000003
1235,23.999999999999987
1275,23.401663747671177
1315,24.0
1355,22.346563859755606
1395,22.03256300267141
1435,24.000000000000005
1475,23.939836262351219
1515,23.983392340983824
1555,24.139982437082908
1595,23.899019095574773
1635,23.9596959483189
2,1, 7,21, 0, 9, 0.00,10.00,SummerDesignDay
8,14.773641492809972
10,279049427.6088812
1749,0.0
1786,216472237.16897545
2,1, 7,21, 0, 9,10.00,20.00,SummerDesignDay
8,14.91640948124148
10,279049427.6088812
1749,0.0
1786,254340981.88327665
2,1, 7,21, 0, 9,20.00,30.00,SummerDesignDay
8,15.05843890714102
10,279049427.6088812
1749,0.0
1786,290366167.417299
2,1, 7,21, 0, 9,30.00,40.00,SummerDesignDay
8,15.199735893563798
10,279049427.6088812
1749,0.0
1786,319011451.3026535
2,1, 7,21, 0, 9,40.00,50.00,SummerDesignDay
8,15.340306256439395
10,279049427.6088812
1749,0.0
1786,353193339.78288176
2,1, 7,21, 0, 9,50.00,60.00,SummerDesignDay
8,15.48015101768072
10,279049427.6088812
1749,0.0
1786,386850487.14017328
2,1, 7,21, 0, 9, 0.00,60.00,SummerDesignDay
875,22.919030903948256
915,23.98660238732005
955,24.00000000000003
995,23.994080658740847
1035,23.889504011042324
1075,23.477038140719626
1115,23.99999999999999
1155,24.0
1195,24.000000000000015
1235,24.000000000000015
1275,23.997172063335684
1315,24.0
1355,23.557684608803315
1395,23.87636129202905
1435,24.000000000000015
1475,23.999999985763766
1515,23.999999999999884
1555,23.99122506535713
1595,23.999999999920254
1635,23.9999999998325
2,1, 7,21, 0,10, 0.00,10.00,SummerDesignDay
8,15.60467292907716
10,360734997.78317257
1749,0.0
1786,470188097.675186
2,1, 7,21, 0,10,10.00,20.00,SummerDesignDay
8,15.72862731650033
10,360734997.78317257
1749,0.0
1786,510151214.21539589
2,1, 7,21, 0,10,20.00,30.00,SummerDesignDay
8,15.852017409284228
10,360734997.78317257
1749,0.0
1786,539060765.0262766
2,1, 7,21, 0,10,30.00,40.00,SummerDesignDay
8,15.974848118364367
10,360734997.78317257
1749,0.0
1786,571433239.4310945
2,1, 7,21, 0,10,40.00,50.00,SummerDesignDay
8,16.097123145563505
10,360734997.78317257
1749,0.0
1786,601389406.7961019
2,1, 7,21, 0,10,50.00,60.00,SummerDesignDay
8,16.218846351168599
10,360734997.78317257
1749,0.0
1786,630578635.561516
2,1, 7,21, 0,10, 0.00,60.00,SummerDesignDay
875,23.996570303626883
915,23.999999999998683
955,23.999999999999944
995,23.999999999999387
1035,23.99999999982394
1075,23.997330500354307
1115,24.000000000000026
1155,24.000000000000026
1195,24.000000000000026
1235,24.000000000000044
1275,23.999999999517539
1315,24.00000000000001
1355,23.9999906972992
1395,23.999999999468995
1435,24.00000000000006
1475,24.00000000000014
1515,24.000000000000019
1555,24.00000000000001
1595,24.000000000000019
1635,24.00000000000001
2,1, 7,21, 0,11, 0.00,10.00,SummerDesignDay
8,16.325793027093189
10,372659898.538573
1749,0.0
1786,672146172.8541044
2,1, 7,21, 0,11,10.00,20.00,SummerDesignDay
8,16.432322158488288
10,372659898.538573
1749,0.0
1786,698787984.6576634
2,1, 7,21, 0,11,20.00,30.00,SummerDesignDay
8,16.538424180249178
10,372659898.538573
1749,0.0
1786,724280307.297507
2,1, 7,21, 0,11,30.00,40.00,SummerDesignDay
8,16.644108396469087
10,372659898.538573
1749,0.0
1786,748833491.4398589
2,1, 7,21, 0,11,40.00,50.00,SummerDesignDay
8,16.749376736593655
10,372659898.538573
1749,0.0
1786,771672435.7255414
2,1, 7,21, 0,11,50.00,60.00,SummerDesignDay
8,16.854232613237156
10,372659898.538573
1749,0.0
1786,793541813.3409876
2,1, 7,21, 0,11, 0.00,60.00,SummerDesignDay
875,23.999999545468403
915,23.999999999999987
955,24.000000000000104
995,24.000000000000047
1035,24.0
1075,23.999999999038228
1115,24.00000000000001
1155,24.000000000000019
1195,24.000000000000015
1235,24.000000000000015
1275,23.999999999999916
1315,24.000000000000044
1355,23.999999999934869
1395,24.000000000000019
1435,24.000000000000069
1475,24.000000000000087
1515,24.00000000000001
1555,24.00000000000001
1595,24.000000000000019
1635,24.00000000000003
2,1, 7,21, 0,12, 0.00,10.00,SummerDesignDay
8,16.92390823520069
10,384584799.29397347
1749,0.0
1786,825644850.7137609
2,1, 7,21, 0,12,10.00,20.00,SummerDesignDay
8,16.99340178950456
10,384584799.29397347
1749,0.0
1786,842212200.9003533
2,1, 7,21, 0,12,20.00,30.00,SummerDesignDay
8,17.06272006743463
10,384584799.29397347
1749,0.0
1786,858034743.4174589
2,1, 7,21, 0,12,30.00,40.00,SummerDesignDay
8,17.131853229172639
10,384584799.29397347
1749,0.0
1786,873815129.452688
2,1, 7,21, 0,12,40.00,50.00,SummerDesignDay
8,17.200807172194087
10,384584799.29397347
1749,0.0
1786,889483725.8904189
2,1, 7,21, 0,12,50.00,60.00,SummerDesignDay
8,17.269582116758607
10,384584799.29397347
1749,0.0
1786,904964965.0159308
2,1, 7,21, 0,12, 0.00,60.00,SummerDesignDay
875,23.99999999994381
915,24.0
955,23.999999999999948
995,24.000000000000033
1035,24.000000000000019
1075,24.000000000000019
1115,24.000000000000026
1155,24.000000000000026
1195,24.000000000000015
1235,24.000000000000044
1275,24.000000000000044
1315,24.00000000000001
1355,24.000000000000026
1395,24.00000000000003
1435,24.000000000000058
1475,24.00000000000007
1515,24.000000000000019
1555,24.000000000000015
1595,24.0
1635,24.0
2,1, 7,21, 0,13, 0.00,10.00,SummerDesignDay
8,17.32447360221357
10,384584799.29397347
1749,0.0
1786,935337442.9487558
2,1, 7,21, 0,13,10.00,20.00,SummerDesignDay
8,17.379251291230806
10,384584799.29397347
1749,0.0
1786,948710276.1476684
2,1, 7,21, 0,13,20.00,30.00,SummerDesignDay
8,17.433921312061729
10,384584799.29397347
1749,0.0
1786,961434177.9244605
2,1, 7,21, 0,13,30.00,40.00,SummerDesignDay
8,17.488473222557489
10,384584799.29397347
1749,0.0
1786,973994957.386481
2,1, 7,21, 0,13,40.00,50.00,SummerDesignDay
8,17.542913447755134
10,384584799.29397347
1749,0.0
1786,986186703.7699307
2,1, 7,21, 0,13,50.00,60.00,SummerDesignDay
8,17.59724609886134
10,384584799.29397347
1749,0.0
1786,997959385.1056272
2,1, 7,21, 0,13, 0.00,60.00,SummerDesignDay
875,24.00000000000001
915,23.99999999999996
955,24.000000000000033
995,24.00000000000003
1035,23.999999999999976
1075,24.000000000000019
1115,23.99999999999999
1155,24.000000000000005
1195,24.000000000000047
1235,24.00000000000003
1275,24.00000000000001
1315,24.00000000000001
1355,24.000000000000019
1395,24.000000000000055
1435,24.00000000000004
1475,24.000000000000069
1515,24.000000000000019
1555,24.000000000000033
1595,24.0
1635,24.00000000000001
2,1, 7,21, 0,14, 0.00,10.00,SummerDesignDay
8,17.6311450462694
10,384584799.29397347
1749,0.0
1786,1001695332.3490552
2,1, 7,21, 0,14,10.00,20.00,SummerDesignDay
8,17.665000449016245
10,384584799.29397347
1749,0.0
1786,1008992325.5768538
2,1, 7,21, 0,14,20.00,30.00,SummerDesignDay
8,17.698812743128934
10,384584799.29397347
1749,0.0
1786,1016267644.9153382
2,1, 7,21, 0,14,30.00,40.00,SummerDesignDay
8,17.732582050940107
10,384584799.29397347
1749,0.0
1786,1023505480.2216679
2,1, 7,21, 0,14,40.00,50.00,SummerDesignDay
8,17.766307345121004
10,384584799.29397347
1749,0.0
1786,1030732523.6511024
2,1, 7,21, 0,14,50.00,60.00,SummerDesignDay
8,17.79999023167558
10,384584799.29397347
1749,0.0
1786,1037953823.304694
2,1, 7,21, 0,14, 0.00,60.00,SummerDesignDay
875,24.00000000000003
915,23.999999999999998
955,24.000000000000005
995,24.000000000000033
1035,24.000000000000055
1075,24.000000000000019
1115,24.000000000000026
1155,24.00000000000001
1195,24.00000000000004
1235,24.000000000000019
1275,23.999999999999998
1315,23.99999999999999
1355,23.99999999999999
1395,24.000000000000069
1435,24.000000000000026
1475,24.00000000000003
1515,24.00000000000001
1555,24.00000000000001
1595,24.00000000000003
1635,24.000000000000026
2,1, 7,21, 0,15, 0.00,10.00,SummerDesignDay
8,17.79999023167558
10,384584799.29397347
1749,0.0
1786,1027316254.9301219
2,1, 7,21, 0,15,10.00,20.00,SummerDesignDay
8,17.79999023167558
10,384584799.29397347
1749,0.0
1786,1027778936.1026632
2,1, 7,21, 0,15,20.00,30.00,SummerDesignDay
8,17.79999023167558
10,384584799.29397347
1749,0.0
1786,1028394893.4823741
2,1, 7,21, 0,15,30.00,40.00,SummerDesignDay
8,17.79999023167558
10,384584799.29397347
1749,0.0
1786,1028844216.574114
2,1, 7,21, 0,15,40.00,50.00,SummerDesignDay
8,17.79999023167558
10,384584799.29397347
1749,0.0
1786,1029083963.5768759
2,1, 7,21, 0,15,50.00,60.00,SummerDesignDay
8,17.79999023167558
10,384584799.29397347
1749,0.0
1786,1029043464.1779283
2,1, 7,21, 0,15, 0.00,60.00,SummerDesignDay
875,24.00000000000003
915,24.000000000000015
955,23.99999999999999
995,24.000000000000015
1035,23.999999999999984
1075,24.0
1115,24.000000000000019
1155,24.000000000000019
1195,24.00000000000004
1235,23.999999999999987
1275,24.000000000000055
1315,23.99999999999997
1355,24.000000000000019
1395,24.000000000000055
1435,23.99999999999996
1475,24.000000000000055
1515,23.99999999999999
1555,24.0
1595,24.000000000000026
1635,24.00000000000001
2,1, 7,21, 0,16, 0.00,10.00,SummerDesignDay
8,17.759562446305357
10,384584799.29397347
1749,0.0
1786,1009603646.4574633
2,1, 7,21, 0,16,10.00,20.00,SummerDesignDay
8,17.71907809634183
10,384584799.29397347
1749,0.0
1786,1001072486.6349235
2,1, 7,21, 0,16,20.00,30.00,SummerDesignDay
8,17.67853788661001
10,384584799.29397347
1749,0.0
1786,992333339.6408138
2,1, 7,21, 0,16,30.00,40.00,SummerDesignDay
8,17.63791796367351
10,384584799.29397347
1749,0.0
1786,983202378.0407552
2,1, 7,21, 0,16,40.00,50.00,SummerDesignDay
8,17.59724609886134
10,384584799.29397347
1749,0.0
1786,973788140.1540743
2,1, 7,21, 0,16,50.00,60.00,SummerDesignDay
8,17.55650676726033
10,384584799.29397347
1749,0.0
1786,964128031.0396167
2,1, 7,21, 0,16, 0.00,60.00,SummerDesignDay
875,24.000000000000058
915,23.999999999999959
955,24.00000000000004
995,24.000000000000058
1035,24.00000000000006
1075,24.000000000000005
1115,24.0
1155,24.00000000000001
1195,24.000000000000026
1235,24.000000000000019
1275,24.00000000000004
1315,24.00000000000001
1355,23.999999999999984
1395,23.999999999999969
1435,24.00000000000004
1475,23.99999999999989
1515,24.000000000000026
1555,24.000000000000015
1595,24.000000000000019
1635,24.000000000000015
2,1, 7,21, 0,17, 0.00,10.00,SummerDesignDay
8,17.50209486331892
10,381074828.50507357
1749,0.0
1786,951519586.6827008
2,1, 7,21, 0,17,10.00,20.00,SummerDesignDay
8,17.447570789624618
10,381074828.50507357
1749,0.0
1786,938953512.7351518
2,1, 7,21, 0,17,20.00,30.00,SummerDesignDay
8,17.392929544208135
10,381074828.50507357
1749,0.0
1786,926268534.1469381
2,1, 7,21, 0,17,30.00,40.00,SummerDesignDay
8,17.33818013976614
10,381074828.50507357
1749,0.0
1786,913410106.6104642
2,1, 7,21, 0,17,40.00,50.00,SummerDesignDay
8,17.283317298559309
10,381074828.50507357
1749,0.0
1786,900371905.8483464
2,1, 7,21, 0,17,50.00,60.00,SummerDesignDay
8,17.22833552437677
10,381074828.50507357
1749,0.0
1786,887154487.0327836
2,1, 7,21, 0,17, 0.00,60.00,SummerDesignDay
875,23.999999999999955
915,24.00000000000003
955,24.0
995,24.000000000000055
1035,24.000000000000158
1075,23.999999999999987
1115,24.000000000000044
1155,24.000000000000019
1195,24.0
1235,24.00000000000003
1275,24.00000000000003
1315,24.000000000000033
1355,23.999999999999984
1395,24.00000000000003
1435,24.000000000000055
1475,24.000000000000055
1515,24.000000000000015
1555,24.00000000000001
1595,24.0
1635,24.000000000000033
2,1, 7,21, 0,18, 0.00,10.00,SummerDesignDay
8,17.159453019160176
10,376248618.67033627
1749,0.0
1786,871409881.1494328
2,1, 7,21, 0,18,10.00,20.00,SummerDesignDay
8,17.090391773337136
10,376248618.67033627
1749,0.0
1786,855214539.492454
2,1, 7,21, 0,18,20.00,30.00,SummerDesignDay
8,17.021151077964786
10,376248618.67033627
1749,0.0
1786,838830316.3290658
2,1, 7,21, 0,18,30.00,40.00,SummerDesignDay
8,16.951729380464653
10,376248618.67033627
1749,0.0
1786,822577500.1573552
2,1, 7,21, 0,18,40.00,50.00,SummerDesignDay
8,16.882126503829249
10,376248618.67033627
1749,0.0
1786,806403153.8969331
2,1, 7,21, 0,18,50.00,60.00,SummerDesignDay
8,16.812341807494034
10,376248618.67033627
1749,0.0
1786,789494719.6018361
2,1, 7,21, 0,18, 0.00,60.00,SummerDesignDay
875,23.99999999999997
915,24.000000000000019
955,24.000000000000055
995,24.000000000000019
1035,24.000000000000126
1075,24.000000000000026
1115,24.000000000000026
1155,24.00000000000001
1195,24.000000000000047
1235,24.00000000000003
1275,24.00000000000004
1315,24.000000000000015
1355,24.000000000000019
1395,24.00000000000004
1435,24.000000000000015
1475,24.00000000000006
1515,24.000000000000033
1555,24.000000000000015
1595,24.00000000000003
1635,24.000000000000015
2,1, 7,21, 0,19, 0.00,10.00,SummerDesignDay
8,16.707321072823203
10,372299901.5328238
1749,0.0
1786,774619728.9901369
2,1, 7,21, 0,19,10.00,20.00,SummerDesignDay
8,16.601881826644556
10,372299901.5328238
1749,0.0
1786,750954383.4785955
2,1, 7,21, 0,19,20.00,30.00,SummerDesignDay
8,16.496030555252849
10,372299901.5328238
1749,0.0
1786,726713668.5370222
2,1, 7,21, 0,19,30.00,40.00,SummerDesignDay
8,16.389760181474104
10,372299901.5328238
1749,0.0
1786,702126153.5671163
2,1, 7,21, 0,19,40.00,50.00,SummerDesignDay
8,16.283067654262039
10,372299901.5328238
1749,0.0
1786,676976101.6505292
2,1, 7,21, 0,19,50.00,60.00,SummerDesignDay
8,16.17595057957811
10,372299901.5328238
1749,0.0
1786,651760682.8738833
2,1, 7,21, 0,19, 0.00,60.00,SummerDesignDay
875,24.000000000000019
915,24.000000000000033
955,24.000000000000005
995,24.00000000000004
1035,24.000000000000005
1075,24.00000000000003
1115,24.000000000000044
1155,24.000000000000019
1195,24.000000000000047
1235,24.00000000000003
1275,23.999999999999959
1315,24.00000000000004
1355,24.00000000000001
1395,24.000000000000055
1435,24.00000000000004
1475,23.999999999999998
1515,24.00000000000003
1555,23.999999999999976
1595,24.00000000000003
1635,24.00000000000003
2,1, 7,21, 0,20, 0.00,10.00,SummerDesignDay
8,16.097123145563505
10,338685181.2918339
1749,0.0
1786,624112414.5327721
2,1, 7,21, 0,20,10.00,20.00,SummerDesignDay
8,16.018070242471564
10,338685181.2918339
1749,0.0
1786,603420828.7585751
2,1, 7,21, 0,20,20.00,30.00,SummerDesignDay
8,15.938779752340516
10,338685181.2918339
1749,0.0
1786,583762070.5788822
2,1, 7,21, 0,20,30.00,40.00,SummerDesignDay
8,15.85926152575189
10,338685181.2918339
1749,0.0
1786,563534016.6310359
2,1, 7,21, 0,20,40.00,50.00,SummerDesignDay
8,15.779503718563929
10,338685181.2918339
1749,0.0
1786,543086689.938884
2,1, 7,21, 0,20,50.00,60.00,SummerDesignDay
8,15.699515709672767
10,338685181.2918339
1749,0.0
1786,522141204.19044867
2,1, 7,21, 0,20, 0.00,60.00,SummerDesignDay
875,23.999999999999984
915,24.000000000000005
955,23.999999999999998
995,24.0
1035,23.99999999999996
1075,24.000000000000015
1115,24.000000000000044
1155,24.000000000000019
1195,24.000000000000026
1235,24.000000000000087
1275,24.000000000000005
1315,24.000000000000019
1355,24.000000000000019
1395,23.99999999999996
1435,24.000000000000015
1475,23.99999999999999
1515,24.000000000000019
1555,24.000000000000033
1595,24.00000000000001
1635,23.99999999999999
2,1, 7,21, 0,21, 0.00,10.00,SummerDesignDay
8,15.63389147320404
10,327187776.9790956
1749,0.0
1786,496958125.0811808
2,1, 7,21, 0,21,10.00,20.00,SummerDesignDay
8,15.56810827419793
10,327187776.9790956
1749,0.0
1786,477431652.9493591
2,1, 7,21, 0,21,20.00,30.00,SummerDesignDay
8,15.502170882753524
10,327187776.9790956
1749,0.0
1786,457734258.1705487