Program Version,EnergyPlus, Version 8.9.0-eba93e8e1b, YMD=2019.04.04 17:59
1,5,Environment Title[],Latitude[deg],Longitude[deg],Time Zone[],Elevation[m]
2,8,Day of Simulation[],Month[],Day of Month[],DST Indicator[1=yes 0=no],Hour[],StartMinute[],EndMinute[],DayType
3,5,Cumulative Day of Simulation[],Month[],Day of Month[],DST Indicator[1=yes 0=no],DayType  ! When Daily Meters Requested
4,2,Cumulative Days of Simulation[],Month[]  ! When Monthly Meters Requested
5,1,Cumulative Days of Simulation[] ! When Run Period Meters Requested
6,1,Calendar Year of Simulation[] ! When Annual Meters Requested
10,1,Electricity:Facility [J] !TimeStep
321,1,Gas:Facility [J] !TimeStep
323,7,Gas:Facility [J] !Daily [Value,Min,Hour,Minute,Max,Hour,Minute]
12,7,Electricity:Facility [J] !Daily [Value,Min,Hour,Minute,Max,Hour,Minute]
End of Data Dictionary
1,RUN PERIOD 1,  56.65,-111.22,  -7.00, 369.10
2,1, 1, 1, 0, 1, 0.00,10.00,Sunday
10,23203058.031112505
321,37856782.777458708
2,1, 1, 1, 0, 1,10.00,20.00,Sunday
10,23203058.031112505
321,38965307.88020873
2,1, 1, 1, 0, 1,20.00,30.00,Sunday
10,23203058.031112505
321,39985363.851756598
2,1, 1, 1, 0, 1,30.00,40.00,Sunday
10,23203058.031112505
321,40999299.612601619
2,1, 1, 1, 0, 1,40.00,50.00,Sunday
10,23203058.031112505
321,42004470.592338148
2,1, 1, 1, 0, 1,50.00,60.00,Sunday
10,23203058.031112505
321,45430063.27941295
2,1, 1, 1, 0, 2, 0.00,10.00,Sunday
10,24974403.74474795
321,87097626.90711145
2,1, 1, 1, 0, 2,10.00,20.00,Sunday
10,24974403.74474795
321,68690133.30093812
2,1, 1, 1, 0, 2,20.00,30.00,Sunday
10,24974403.74474795
321,68385088.49838743
2,1, 1, 1, 0, 2,30.00,40.00,Sunday
10,24974403.74474795
321,68518589.46098617
2,1, 1, 1, 0, 2,40.00,50.00,Sunday
10,24974403.74474795
321,69962297.31248898
2,1, 1, 1, 0, 2,50.00,60.00,Sunday
10,24974403.74474795
321,75051316.34211713
2,1, 1, 1, 0, 3, 0.00,10.00,Sunday
10,18973093.235557915
321,35572897.260914508
2,1, 1, 1, 0, 3,10.00,20.00,Sunday
10,18973093.235557915
321,31898188.988924534
2,1, 1, 1, 0, 3,20.00,30.00,Sunday
10,18973093.235557915
321,39663883.48836243
2,1, 1, 1, 0, 3,30.00,40.00,Sunday
10,18973093.235557915
321,34377297.22886919
2,1, 1, 1, 0, 3,40.00,50.00,Sunday
10,18973093.235557915
321,31828964.681754713
2,1, 1, 1, 0, 3,50.00,60.00,Sunday
10,18973093.235557915
321,39115022.39577703
2,1, 1, 1, 0, 4, 0.00,10.00,Sunday
10,18973093.235557915
321,33394703.17293559
2,1, 1, 1, 0, 4,10.00,20.00,Sunday
10,18973093.235557915
321,31678765.539136124
2,1, 1, 1, 0, 4,20.00,30.00,Sunday
10,18973093.235557915
321,38529858.14093928
2,1, 1, 1, 0, 4,30.00,40.00,Sunday
10,18973093.235557915
321,32384319.568535314
2,1, 1, 1, 0, 4,40.00,50.00,Sunday
10,18973093.235557915
321,31487959.00689189
2,1, 1, 1, 0, 4,50.00,60.00,Sunday
10,18973093.235557915
321,37913313.130111
2,1, 1, 1, 0, 5, 0.00,10.00,Sunday
10,18973093.235557915
321,31360673.241268159
2,1, 1, 1, 0, 5,10.00,20.00,Sunday
10,18973093.235557915
321,31263555.183128474
2,1, 1, 1, 0, 5,20.00,30.00,Sunday
10,18973093.235557915
321,37282050.19926266
2,1, 1, 1, 0, 5,30.00,40.00,Sunday
10,18973093.235557915
321,30325266.730516308
2,1, 1, 1, 0, 5,40.00,50.00,Sunday
10,18973093.235557915
321,31012522.00273357
2,1, 1, 1, 0, 5,50.00,60.00,Sunday
10,18973093.235557915
321,36637400.694482039
2,1, 1, 1, 0, 6, 0.00,10.00,Sunday
10,18973093.235557915
321,29361464.15348675
2,1, 1, 1, 0, 6,10.00,20.00,Sunday
10,18973093.235557915
321,30865802.367658717
2,1, 1, 1, 0, 6,20.00,30.00,Sunday
10,18973093.235557915
321,36155676.164960738
2,1, 1, 1, 0, 6,30.00,40.00,Sunday
10,18973093.235557915
321,28454408.685070188
2,1, 1, 1, 0, 6,40.00,50.00,Sunday
10,18973093.235557915
321,30709657.21423781
2,1, 1, 1, 0, 6,50.00,60.00,Sunday
10,18973093.235557915
321,35630496.12353509
2,1, 1, 1, 0, 7, 0.00,10.00,Sunday
10,18973093.235557915
321,25957155.01140536
2,1, 1, 1, 0, 7,10.00,20.00,Sunday
10,18973093.235557915
321,27972453.887716079
2,1, 1, 1, 0, 7,20.00,30.00,Sunday
10,18973093.235557915
321,31593949.47558166
2,1, 1, 1, 0, 7,30.00,40.00,Sunday
10,18973093.235557915
321,22176366.295561635
2,1, 1, 1, 0, 7,40.00,50.00,Sunday
10,18973093.235557915
321,24942128.61614624
2,1, 1, 1, 0, 7,50.00,60.00,Sunday
10,18973093.235557915
321,28193819.91210621
2,1, 1, 1, 0, 8, 0.00,10.00,Sunday
10,18973093.235557915
321,19852021.25989912
2,1, 1, 1, 0, 8,10.00,20.00,Sunday
10,18973093.235557915
321,24243822.362414104
2,1, 1, 1, 0, 8,20.00,30.00,Sunday
10,18973093.235557915
321,28037329.335156993
2,1, 1, 1, 0, 8,30.00,40.00,Sunday
10,18973093.235557915
321,18732661.54997158
2,1, 1, 1, 0, 8,40.00,50.00,Sunday
10,18973093.235557915
321,23787486.716316366
2,1, 1, 1, 0, 8,50.00,60.00,Sunday
10,18973093.235557915
321,27247930.437388667
2,1, 1, 1, 0, 9, 0.00,10.00,Sunday
10,18973093.235557915
321,17810159.02345039
2,1, 1, 1, 0, 9,10.00,20.00,Sunday
10,18973093.235557915
321,23709298.437641309
2,1, 1, 1, 0, 9,20.00,30.00,Sunday
10,18973093.235557915
321,26991608.166720369
2,1, 1, 1, 0, 9,30.00,40.00,Sunday
10,18973093.235557915
321,17088676.294872896
2,1, 1, 1, 0, 9,40.00,50.00,Sunday
10,18973093.235557915
321,23666817.78809404
2,1, 1, 1, 0, 9,50.00,60.00,Sunday
10,18973093.235557915
321,26632117.826573846
2,1, 1, 1, 0,10, 0.00,10.00,Sunday
10,18973093.235557915
321,33130144.70497103
2,1, 1, 1, 0,10,10.00,20.00,Sunday
10,18973093.235557915
321,34583630.03168516
2,1, 1, 1, 0,10,20.00,30.00,Sunday
10,18973093.235557915
321,33285359.00619486
2,1, 1, 1, 0,10,30.00,40.00,Sunday
10,18973093.235557915
321,33542953.395253555
2,1, 1, 1, 0,10,40.00,50.00,Sunday
10,18973093.235557915
321,33971318.712320748
2,1, 1, 1, 0,10,50.00,60.00,Sunday
10,18973093.235557915
321,34395799.937052179
2,1, 1, 1, 0,11, 0.00,10.00,Sunday
10,24974403.74474795
321,50613457.425138618
2,1, 1, 1, 0,11,10.00,20.00,Sunday
10,24974403.74474795
321,31979141.583780543
2,1, 1, 1, 0,11,20.00,30.00,Sunday
10,24974403.74474795
321,31343485.73040025
2,1, 1, 1, 0,11,30.00,40.00,Sunday
10,24974403.74474795
321,30486569.543163148
2,1, 1, 1, 0,11,40.00,50.00,Sunday
10,24974403.74474795
321,29685400.518391238
2,1, 1, 1, 0,11,50.00,60.00,Sunday
10,24974403.74474795
321,28896804.31226243
2,1, 1, 1, 0,12, 0.00,10.00,Sunday
10,29204368.54030254
321,37074088.02989265
2,1, 1, 1, 0,12,10.00,20.00,Sunday
10,29204368.54030254
321,40518882.134510409
2,1, 1, 1, 0,12,20.00,30.00,Sunday
10,29204368.54030254
321,45078195.37916166
2,1, 1, 1, 0,12,30.00,40.00,Sunday
10,29204368.54030254
321,41164981.29979979
2,1, 1, 1, 0,12,40.00,50.00,Sunday
10,29204368.54030254
321,41860397.74167226
2,1, 1, 1, 0,12,50.00,60.00,Sunday
10,29204368.54030254
321,39727880.44848881
2,1, 1, 1, 0,13, 0.00,10.00,Sunday
10,29204368.54030254
321,36926783.47856603
2,1, 1, 1, 0,13,10.00,20.00,Sunday
10,29204368.54030254
321,35554659.24885782
2,1, 1, 1, 0,13,20.00,30.00,Sunday
10,29204368.54030254
321,34623255.42609297
2,1, 1, 1, 0,13,30.00,40.00,Sunday
10,29204368.54030254
321,33387981.630764419
2,1, 1, 1, 0,13,40.00,50.00,Sunday
10,29204368.54030254
321,33815025.47286528
2,1, 1, 1, 0,13,50.00,60.00,Sunday
10,29204368.54030254
321,33941312.22278099
2,1, 1, 1, 0,14, 0.00,10.00,Sunday
10,29204368.54030254
321,35057903.9060071
2,1, 1, 1, 0,14,10.00,20.00,Sunday
10,29204368.54030254
321,34988859.553941119
2,1, 1, 1, 0,14,20.00,30.00,Sunday
10,29204368.54030254
321,35022942.00640434
2,1, 1, 1, 0,14,30.00,40.00,Sunday
10,29204368.54030254
321,35055529.468073409
2,1, 1, 1, 0,14,40.00,50.00,Sunday
10,29204368.54030254
321,35092651.94359966
2,1, 1, 1, 0,14,50.00,60.00,Sunday
10,29204368.54030254
321,35131369.68218114
2,1, 1, 1, 0,15, 0.00,10.00,Sunday
10,29204368.54030254
321,36521766.54068366
2,1, 1, 1, 0,15,10.00,20.00,Sunday
10,29204368.54030254
321,35953790.8382003
2,1, 1, 1, 0,15,20.00,30.00,Sunday
10,29204368.54030254
321,35049724.87066076
2,1, 1, 1, 0,15,30.00,40.00,Sunday
10,29204368.54030254
321,35406412.08286331
2,1, 1, 1, 0,15,40.00,50.00,Sunday
10,29204368.54030254
321,35754539.079874638
2,1, 1, 1, 0,15,50.00,60.00,Sunday
10,29204368.54030254
321,36104148.98641022
2,1, 1, 1, 0,16, 0.00,10.00,Sunday
10,29204368.54030254
321,34834874.9018414
2,1, 1, 1, 0,16,10.00,20.00,Sunday
10,29204368.54030254
321,37868279.24374938
2,1, 1, 1, 0,16,20.00,30.00,Sunday
10,29204368.54030254
321,41456337.17923988
2,1, 1, 1, 0,16,30.00,40.00,Sunday
10,29204368.54030254
321,42589265.462446819
2,1, 1, 1, 0,16,40.00,50.00,Sunday
10,29204368.54030254
321,43532059.386182557
2,1, 1, 1, 0,16,50.00,60.00,Sunday
10,29204368.54030254
321,44458696.1860103
2,1, 1, 1, 0,17, 0.00,10.00,Sunday
10,29204368.54030254
321,42017670.006568018
2,1, 1, 1, 0,17,10.00,20.00,Sunday
10,29204368.54030254
321,35943506.69008697
2,1, 1, 1, 0,17,20.00,30.00,Sunday
10,29204368.54030254
321,36177660.8219776
2,1, 1, 1, 0,17,30.00,40.00,Sunday
10,29204368.54030254
321,42406004.13000955
2,1, 1, 1, 0,17,40.00,50.00,Sunday
10,29204368.54030254
321,42200797.686035279
2,1, 1, 1, 0,17,50.00,60.00,Sunday
10,29204368.54030254
321,42003042.032164897
2,1, 1, 1, 0,18, 0.00,10.00,Sunday
10,29204368.54030254
321,43796315.05957631
2,1, 1, 1, 0,18,10.00,20.00,Sunday
10,29204368.54030254
321,38813898.03309243
2,1, 1, 1, 0,18,20.00,30.00,Sunday
10,29204368.54030254
321,39242094.670965399
2,1, 1, 1, 0,18,30.00,40.00,Sunday
10,29204368.54030254
321,46436479.29517634
2,1, 1, 1, 0,18,40.00,50.00,Sunday
10,29204368.54030254
321,48750648.2430491
2,1, 1, 1, 0,18,50.00,60.00,Sunday
10,29204368.54030254
321,49995887.348303128
2,1, 1, 1, 0,19, 0.00,10.00,Sunday
10,29204368.54030254
321,48353496.03498644
2,1, 1, 1, 0,19,10.00,20.00,Sunday
10,29204368.54030254
321,47508181.77173428
2,1, 1, 1, 0,19,20.00,30.00,Sunday
10,29204368.54030254
321,44668501.02483477
2,1, 1, 1, 0,19,30.00,40.00,Sunday
10,29204368.54030254
321,45184192.019078347
2,1, 1, 1, 0,19,40.00,50.00,Sunday
10,29204368.54030254
321,45692157.2832833
2,1, 1, 1, 0,19,50.00,60.00,Sunday
10,29204368.54030254
321,50825798.23428354
2,1, 1, 1, 0,20, 0.00,10.00,Sunday
10,29204368.54030254
321,50410429.29112644
2,1, 1, 1, 0,20,10.00,20.00,Sunday
10,29204368.54030254
321,50673499.28654816
2,1, 1, 1, 0,20,20.00,30.00,Sunday
10,29204368.54030254
321,51144094.73311136
2,1, 1, 1, 0,20,30.00,40.00,Sunday
10,29204368.54030254
321,51602686.46467957
2,1, 1, 1, 0,20,40.00,50.00,Sunday
10,29204368.54030254
321,52060059.927485797
2,1, 1, 1, 0,20,50.00,60.00,Sunday
10,29204368.54030254
321,52517999.98624419
2,1, 1, 1, 0,21, 0.00,10.00,Sunday
10,29204368.54030254
321,55218723.03962313
2,1, 1, 1, 0,21,10.00,20.00,Sunday
10,29204368.54030254
321,55035301.56622306
2,1, 1, 1, 0,21,20.00,30.00,Sunday
10,29204368.54030254
321,55443108.571500618
2,1, 1, 1, 0,21,30.00,40.00,Sunday
10,29204368.54030254
321,55853038.292246099
2,1, 1, 1, 0,21,40.00,50.00,Sunday
10,29204368.54030254
321,56263167.253146547
2,1, 1, 1, 0,21,50.00,60.00,Sunday
10,29204368.54030254
321,56672335.80071212
2,1, 1, 1, 0,22, 0.00,10.00,Sunday
10,29204368.54030254
321,59902142.97009623
2,1, 1, 1, 0,22,10.00,20.00,Sunday
10,29204368.54030254
321,61068559.66931562
2,1, 1, 1, 0,22,20.00,30.00,Sunday
10,29204368.54030254
321,62124727.4466259
2,1, 1, 1, 0,22,30.00,40.00,Sunday
10,29204368.54030254
321,63185013.630115348
2,1, 1, 1, 0,22,40.00,50.00,Sunday
10,29204368.54030254
321,65882763.92903888
2,1, 1, 1, 0,22,50.00,60.00,Sunday
10,29204368.54030254
321,67469043.603877
2,1, 1, 1, 0,23, 0.00,10.00,Sunday
10,29204368.54030254
321,65030804.01132052
2,1, 1, 1, 0,23,10.00,20.00,Sunday
10,29204368.54030254
321,65548871.61913163
2,1, 1, 1, 0,23,20.00,30.00,Sunday
10,29204368.54030254
321,65756493.76272786
2,1, 1, 1, 0,23,30.00,40.00,Sunday
10,29204368.54030254
321,65971250.31582244
2,1, 1, 1, 0,23,40.00,50.00,Sunday
10,29204368.54030254
321,66186913.66243799
2,1, 1, 1, 0,23,50.00,60.00,Sunday
10,29204368.54030254
321,66401101.82331845
2,1, 1, 1, 0,24, 0.00,10.00,Sunday
10,23203058.031112505
321,37654801.17678672
2,1, 1, 1, 0,24,10.00,20.00,Sunday
10,23203058.031112505
321,37153264.80185941
2,1, 1, 1, 0,24,20.00,30.00,Sunday
10,23203058.031112505
321,36811740.201609749
2,1, 1, 1, 0,24,30.00,40.00,Sunday
10,23203058.031112505
321,36458639.64731944
2,1, 1, 1, 0,24,40.00,50.00,Sunday
10,23203058.031112505
321,36092135.0124422
2,1, 1, 1, 0,24,50.00,60.00,Sunday
10,23203058.031112505
321,37977965.49524217
3,1, 1, 1, 0,Sunday
12,3591552551.518898,18973093.235557915, 3,10,29204368.54030254,12,10
323,5887539953.685696,17088676.294872896, 9,40,87097626.90711145, 2,10
2,2, 1, 2, 0, 1, 0.00,10.00,Monday
10,29204368.54030254
321,59463121.24841353
2,2, 1, 2, 0, 1,10.00,20.00,Monday
10,29204368.54030254
321,60983313.449829559
2,2, 1, 2, 0, 1,20.00,30.00,Monday
10,29204368.54030254
321,67586656.19179856
2,2, 1, 2, 0, 1,30.00,40.00,Monday
10,29204368.54030254
321,67748437.8057306
2,2, 1, 2, 0, 1,40.00,50.00,Monday
10,29204368.54030254
321,67410784.32037024
2,2, 1, 2, 0, 1,50.00,60.00,Monday
10,29204368.54030254
321,68898302.19933222
2,2, 1, 2, 0, 2, 0.00,10.00,Monday
10,23203058.031112505
321,41887048.30736176
2,2, 1, 2, 0, 2,10.00,20.00,Monday
10,23203058.031112505
321,41676569.75987275
2,2, 1, 2, 0, 2,20.00,30.00,Monday
10,23203058.031112505
321,39037893.13475512
2,2, 1, 2, 0, 2,30.00,40.00,Monday
10,23203058.031112505
321,38431267.67851752
2,2, 1, 2, 0, 2,40.00,50.00,Monday
10,23203058.031112505
321,38320818.425691958
2,2, 1, 2, 0, 2,50.00,60.00,Monday
10,23203058.031112505
321,38199945.67167654
2,2, 1, 2, 0, 3, 0.00,10.00,Monday
10,18973093.235557915
321,34132858.39929234
2,2, 1, 2, 0, 3,10.00,20.00,Monday
10,18973093.235557915
321,37382328.57445577
2,2, 1, 2, 0, 3,20.00,30.00,Monday
10,18973093.235557915
321,29984856.602178337
2,2, 1, 2, 0, 3,30.00,40.00,Monday
10,18973093.235557915
321,32139926.634613053
2,2, 1, 2, 0, 3,40.00,50.00,Monday
10,18973093.235557915
321,37374404.59539405
2,2, 1, 2, 0, 3,50.00,60.00,Monday
10,18973093.235557915
321,29719236.497624518
2,2, 1, 2, 0, 4, 0.00,10.00,Monday
10,18973093.235557915
321,32260023.457649206
2,2, 1, 2, 0, 4,10.00,20.00,Monday
10,18973093.235557915
321,37147758.832240868
2,2, 1, 2, 0, 4,20.00,30.00,Monday
10,18973093.235557915
321,29131701.15707966
2,2, 1, 2, 0, 4,30.00,40.00,Monday
10,18973093.235557915
321,32256965.443393586
2,2, 1, 2, 0, 4,40.00,50.00,Monday
10,18973093.235557915
321,36895880.38473679
2,2, 1, 2, 0, 4,50.00,60.00,Monday
10,18973093.235557915
321,28609087.149016516
2,2, 1, 2, 0, 5, 0.00,10.00,Monday
10,18973093.235557915
321,32595686.714742803
2,2, 1, 2, 0, 5,10.00,20.00,Monday
10,18973093.235557915
321,37204012.50851955
2,2, 1, 2, 0, 5,20.00,30.00,Monday
10,18973093.235557915
321,28857509.718203933
2,2, 1, 2, 0, 5,30.00,40.00,Monday
10,18973093.235557915
321,33191535.33256507
2,2, 1, 2, 0, 5,40.00,50.00,Monday
10,18973093.235557915
321,37547771.24075481
2,2, 1, 2, 0, 5,50.00,60.00,Monday
10,18973093.235557915
321,28937404.1553788
2,2, 1, 2, 0, 6, 0.00,10.00,Monday
10,18973093.235557915
321,33758292.039651367
2,2, 1, 2, 0, 6,10.00,20.00,Monday
10,18973093.235557915
321,37879226.67536856
2,2, 1, 2, 0, 6,20.00,30.00,Monday
10,18973093.235557915
321,29008923.950897509
2,2, 1, 2, 0, 6,30.00,40.00,Monday
10,18973093.235557915
321,34304646.53050075
2,2, 1, 2, 0, 6,40.00,50.00,Monday
10,18973093.235557915
321,38200539.184459019
2,2, 1, 2, 0, 6,50.00,60.00,Monday
10,18973093.235557915
321,29072602.491198668
2,2, 1, 2, 0, 7, 0.00,10.00,Monday
10,20560201.181338077
321,61163460.95132055
2,2, 1, 2, 0, 7,10.00,20.00,Monday
10,20560201.181338077
321,59851015.85199253
2,2, 1, 2, 0, 7,20.00,30.00,Monday
10,20560201.181338084
321,27821179.32764688
2,2, 1, 2, 0, 7,30.00,40.00,Monday
10,20560201.181338084
321,52025617.10284153
2,2, 1, 2, 0, 7,40.00,50.00,Monday
10,20560201.181338084
321,51050405.50350739
2,2, 1, 2, 0, 7,50.00,60.00,Monday
10,20560201.181338084
321,40438080.18331407
2,2, 1, 2, 0, 8, 0.00,10.00,Monday
10,28882385.7683292
321,61107179.3966761
2,2, 1, 2, 0, 8,10.00,20.00,Monday
10,30469493.71410937
321,62403848.13835982
2,2, 1, 2, 0, 8,20.00,30.00,Monday
10,30469493.71410937
321,49289536.77338052
2,2, 1, 2, 0, 8,30.00,40.00,Monday
10,30469493.71410937
321,49711884.99867533
2,2, 1, 2, 0, 8,40.00,50.00,Monday
10,30469493.71410937
321,56533507.062839109
2,2, 1, 2, 0, 8,50.00,60.00,Monday
10,30469493.71410937
321,41107540.14521057
2,2, 1, 2, 0, 9, 0.00,10.00,Monday
10,66205135.9785666
321,85124544.29641082
2,2, 1, 2, 0, 9,10.00,20.00,Monday
10,66205135.9785666
321,72070572.68617182
2,2, 1, 2, 0, 9,20.00,30.00,Monday
10,66205135.9785666
321,72573035.16689213
2,2, 1, 2, 0, 9,30.00,40.00,Monday
10,66205135.9785666
321,78084131.5830619
2,2, 1, 2, 0, 9,40.00,50.00,Monday
10,66205135.9785666
321,78417411.93777274
2,2, 1, 2, 0, 9,50.00,60.00,Monday
10,66205135.9785666
321,72632120.2848797
2,2, 1, 2, 0,10, 0.00,10.00,Monday
10,88680059.38231318
321,98499602.29983279
2,2, 1, 2, 0,10,10.00,20.00,Monday
10,88680059.38231318
321,78885895.03034699
2,2, 1, 2, 0,10,20.00,30.00,Monday
10,88680059.38231318
321,72097259.8045389
2,2, 1, 2, 0,10,30.00,40.00,Monday
10,88680059.38231318
321,78677746.04578924
2,2, 1, 2, 0,10,40.00,50.00,Monday
10,88680059.38231318
321,75284842.67803161
2,2, 1, 2, 0,10,50.00,60.00,Monday
10,88680059.38231318
321,77587593.38084884
2,2, 1, 2, 0,11, 0.00,10.00,Monday
10,90795041.78009048
321,119822516.27680195
2,2, 1, 2, 0,11,10.00,20.00,Monday
10,90795041.78009048
321,96025768.8322021
2,2, 1, 2, 0,11,20.00,30.00,Monday
10,90795041.78009048
321,98315864.9684618
2,2, 1, 2, 0,11,30.00,40.00,Monday
10,90795041.78009048
321,98756891.31760128
2,2, 1, 2, 0,11,40.00,50.00,Monday
10,90795041.78009048
321,94285440.72394295
2,2, 1, 2, 0,11,50.00,60.00,Monday
10,90795041.78009048
321,103368215.11498462
2,2, 1, 2, 0,12, 0.00,10.00,Monday
10,92910024.17786777
321,91411605.07599275
2,2, 1, 2, 0,12,10.00,20.00,Monday
10,92910024.17786777
321,86519292.04189977
2,2, 1, 2, 0,12,20.00,30.00,Monday
10,92910024.17786777
321,88018175.49329689
2,2, 1, 2, 0,12,30.00,40.00,Monday
10,92910024.17786777
321,87931255.39243837
2,2, 1, 2, 0,12,40.00,50.00,Monday
10,92910024.17786777
321,89453301.7745725
2,2, 1, 2, 0,12,50.00,60.00,Monday
10,92910024.17786777
321,95237192.48584152
2,2, 1, 2, 0,13, 0.00,10.00,Monday
10,92910024.17786777
321,94088166.54174443
2,2, 1, 2, 0,13,10.00,20.00,Monday
10,92910024.17786777
321,86078930.4874948
2,2, 1, 2, 0,13,20.00,30.00,Monday
10,92910024.17786777
321,84912042.8870008
2,2, 1, 2, 0,13,30.00,40.00,Monday
10,92910024.17786777
321,83712197.45345178
2,2, 1, 2, 0,13,40.00,50.00,Monday
10,92910024.17786777
321,91746546.25107877
2,2, 1, 2, 0,13,50.00,60.00,Monday
10,92910024.17786777
321,87151359.63789888
2,2, 1, 2, 0,14, 0.00,10.00,Monday
10,92910024.17786777
321,82616441.52142124
2,2, 1, 2, 0,14,10.00,20.00,Monday
10,92910024.17786777
321,82777606.66735107
2,2, 1, 2, 0,14,20.00,30.00,Monday
10,92910024.17786777
321,92687139.83856443
2,2, 1, 2, 0,14,30.00,40.00,Monday
10,92910024.17786777
321,86766733.00290153
2,2, 1, 2, 0,14,40.00,50.00,Monday
10,92910024.17786777
321,83014319.9179432
2,2, 1, 2, 0,14,50.00,60.00,Monday
10,92910024.17786777
321,84095238.1633281
2,2, 1, 2, 0,15, 0.00,10.00,Monday
10,92910024.17786777
321,94975533.67434779
2,2, 1, 2, 0,15,10.00,20.00,Monday
10,92910024.17786777
321,82845836.83686973
2,2, 1, 2, 0,15,20.00,30.00,Monday
10,92910024.17786777
321,83050237.98108691
2,2, 1, 2, 0,15,30.00,40.00,Monday
10,92910024.17786777
321,90385951.7078181
2,2, 1, 2, 0,15,40.00,50.00,Monday
10,92910024.17786777
321,90245438.37258549
2,2, 1, 2, 0,15,50.00,60.00,Monday
10,92910024.17786777
321,83828511.83757064
2,2, 1, 2, 0,16, 0.00,10.00,Monday
10,92910024.17786777
321,86090934.00378709
2,2, 1, 2, 0,16,10.00,20.00,Monday
10,92910024.17786777
321,89029358.80450142
2,2, 1, 2, 0,16,20.00,30.00,Monday
10,92910024.17786777
321,95116149.83828394
2,2, 1, 2, 0,16,30.00,40.00,Monday
10,92910024.17786777
321,96043837.2747885
2,2, 1, 2, 0,16,40.00,50.00,Monday
10,92910024.17786777
321,90428843.77952856
2,2, 1, 2, 0,16,50.00,60.00,Monday
10,92910024.17786777
321,90704985.94709465
2,2, 1, 2, 0,17, 0.00,10.00,Monday
10,88995056.7618392
321,86791870.5852726
2,2, 1, 2, 0,17,10.00,20.00,Monday
10,88995056.7618392
321,86100169.15056768
2,2, 1, 2, 0,17,20.00,30.00,Monday
10,88995056.7618392
321,85357319.31208211
2,2, 1, 2, 0,17,30.00,40.00,Monday
10,88995056.7618392
321,84467548.66405243
2,2, 1, 2, 0,17,40.00,50.00,Monday
10,88995056.7618392
321,83549062.97788692
2,2, 1, 2, 0,17,50.00,60.00,Monday
10,88995056.7618392
321,84296303.6208792
2,2, 1, 2, 0,18, 0.00,10.00,Monday
10,81626368.08827693
321,85201029.85924661
2,2, 1, 2, 0,18,10.00,20.00,Monday
10,81626368.08827693
321,92710904.49656038
2,2, 1, 2, 0,18,20.00,30.00,Monday
10,81626368.08827693
321,93155444.62417153
2,2, 1, 2, 0,18,30.00,40.00,Monday
10,81626368.08827693
321,93733152.12255156
2,2, 1, 2, 0,18,40.00,50.00,Monday
10,81626368.08827693
321,94760942.38704312
2,2, 1, 2, 0,18,50.00,60.00,Monday
10,81626368.08827693
321,95520806.94199546
2,2, 1, 2, 0,19, 0.00,10.00,Monday
10,64031954.80602123
321,106567971.78001842
2,2, 1, 2, 0,19,10.00,20.00,Monday
10,64031954.80602123
321,106391138.94158353
2,2, 1, 2, 0,19,20.00,30.00,Monday
10,64031954.80602123
321,107148051.7467669
2,2, 1, 2, 0,19,30.00,40.00,Monday
10,64031954.80602123
321,104560390.124271
2,2, 1, 2, 0,19,40.00,50.00,Monday
10,64031954.80602123
321,106237331.65535429
2,2, 1, 2, 0,19,50.00,60.00,Monday
10,64031954.80602123
321,106781745.56924463
2,2, 1, 2, 0,20, 0.00,10.00,Monday
10,53970597.129072967
321,65068223.45462131
2,2, 1, 2, 0,20,10.00,20.00,Monday
10,53970597.129072967
321,62102486.30591689
2,2, 1, 2, 0,20,20.00,30.00,Monday
10,53970597.129072967
321,61950721.60674161
2,2, 1, 2, 0,20,30.00,40.00,Monday
10,53970597.129072967
321,62568756.807183269
2,2, 1, 2, 0,20,40.00,50.00,Monday
10,53970597.129072967
321,62672590.962434697
2,2, 1, 2, 0,20,50.00,60.00,Monday
10,53970597.129072967
321,65216477.1525169
2,2, 1, 2, 0,21, 0.00,10.00,Monday
10,53970597.129072967
321,72724617.79086413
2,2, 1, 2, 0,21,10.00,20.00,Monday
10,53970597.129072967
321,75992474.16206816
2,2, 1, 2, 0,21,20.00,30.00,Monday
10,53970597.129072967
321,75993958.98782283
2,2, 1, 2, 0,21,30.00,40.00,Monday
10,57447490.18723431
321,73667752.18173082
2,2, 1, 2, 0,21,40.00,50.00,Monday
10,57447490.18723431
321,70782366.48354957
2,2, 1, 2, 0,21,50.00,60.00,Monday
10,57447490.18723431
321,70814468.73740994
2,2, 1, 2, 0,22, 0.00,10.00,Monday
10,49146467.04309312
321,57137582.352154579
2,2, 1, 2, 0,22,10.00,20.00,Monday
10,49087171.050446677
321,56079059.8199729
2,2, 1, 2, 0,22,20.00,30.00,Monday
10,49087170.21282351
321,55941775.76190135
2,2, 1, 2, 0,22,30.00,40.00,Monday
10,45610277.31676051
321,57947535.19010125
2,2, 1, 2, 0,22,40.00,50.00,Monday
10,45610276.20027411
321,59660575.18732554
2,2, 1, 2, 0,22,50.00,60.00,Monday
10,45610275.502318728
321,59525482.74795946
2,2, 1, 2, 0,23, 0.00,10.00,Monday
10,35647030.374936219
321,54083774.068750608
2,2, 1, 2, 0,23,10.00,20.00,Monday
10,35735984.40702066
321,57312248.95056821
2,2, 1, 2, 0,23,20.00,30.00,Monday
10,35824938.43910511
321,58809056.38491289
2,2, 1, 2, 0,23,30.00,40.00,Monday
10,35824938.43910511
321,57863964.3064536
2,2, 1, 2, 0,23,40.00,50.00,Monday
10,35824938.43910511
321,59510963.39559532
2,2, 1, 2, 0,23,50.00,60.00,Monday
10,35824938.43910511
321,60547309.62678978
2,2, 1, 2, 0,24, 0.00,10.00,Monday
10,29204368.54030254
321,63576225.316957209
2,2, 1, 2, 0,24,10.00,20.00,Monday
10,29204368.54030254
321,65523680.25805341
2,2, 1, 2, 0,24,20.00,30.00,Monday
10,29204368.54030254
321,65759116.61941692
2,2, 1, 2, 0,24,30.00,40.00,Monday
10,29204368.54030254
321,66596022.37217499
2,2, 1, 2, 0,24,40.00,50.00,Monday
10,29204368.54030254
321,68594467.15438579
2,2, 1, 2, 0,24,50.00,60.00,Monday
10,29204368.54030254
321,70923667.50880128
3,2, 1, 2, 0,Monday
12,8075830746.456735,18973093.235557915, 3,10,92910024.17786777,12,10
323,9859491795.23477,27821179.32764688, 7,30,119822516.27680195,11,10
2,3, 1, 3, 0, 1, 0.00,10.00,Tuesday
10,29204368.54030254
321,67360732.54788029
2,3, 1, 3, 0, 1,10.00,20.00,Tuesday
10,29204368.54030254
321,68093657.84354271
2,3, 1, 3, 0, 1,20.00,30.00,Tuesday
10,29204368.54030254
321,68595041.79441743
2,3, 1, 3, 0, 1,30.00,40.00,Tuesday
10,29204368.54030254
321,69088152.55543359
2,3, 1, 3, 0, 1,40.00,50.00,Tuesday
10,29204368.54030254
321,69569839.41406682
2,3, 1, 3, 0, 1,50.00,60.00,Tuesday
10,29204368.54030254
321,70042216.14835412
2,3, 1, 3, 0, 2, 0.00,10.00,Tuesday
10,23203058.031112505
321,42707072.69555881
2,3, 1, 3, 0, 2,10.00,20.00,Tuesday
10,23203058.031112505
321,39291032.18676762
2,3, 1, 3, 0, 2,20.00,30.00,Tuesday
10,23203058.031112505
321,39579483.98540573
2,3, 1, 3, 0, 2,30.00,40.00,Tuesday
10,23203058.031112505
321,39554836.01276338
2,3, 1, 3, 0, 2,40.00,50.00,Tuesday
10,23203058.031112505
321,39543846.88791291
2,3, 1, 3, 0, 2,50.00,60.00,Tuesday
10,23203058.031112505
321,39520746.37315575
2,3, 1, 3, 0, 3, 0.00,10.00,Tuesday
10,18973093.235557915
321,37750240.55787816
2,3, 1, 3, 0, 3,10.00,20.00,Tuesday
10,18973093.235557915
321,38071364.26667714
2,3, 1, 3, 0, 3,20.00,30.00,Tuesday
10,18973093.235557915
321,27305212.111690515
2,3, 1, 3, 0, 3,30.00,40.00,Tuesday
10,18973093.235557915
321,35175495.12941706
2,3, 1, 3, 0, 3,40.00,50.00,Tuesday
10,18973093.235557915
321,37420505.601270828
2,3, 1, 3, 0, 3,50.00,60.00,Tuesday
10,18973093.235557915
321,26548859.28424371
2,3, 1, 3, 0, 4, 0.00,10.00,Tuesday
10,18973093.235557915
321,35389632.307563308
2,3, 1, 3, 0, 4,10.00,20.00,Tuesday
10,18973093.235557915
321,37999568.16853285
2,3, 1, 3, 0, 4,20.00,30.00,Tuesday
10,18973093.235557915
321,27447426.994760656
2,3, 1, 3, 0, 4,30.00,40.00,Tuesday
10,18973093.235557915
321,36183571.47380249
2,3, 1, 3, 0, 4,40.00,50.00,Tuesday
10,18973093.235557915
321,38671757.89823991
2,3, 1, 3, 0, 4,50.00,60.00,Tuesday
10,18973093.235557915
321,27997635.349073624
2,3, 1, 3, 0, 5, 0.00,10.00,Tuesday
10,18973093.235557915
321,35831976.621679637
2,3, 1, 3, 0, 5,10.00,20.00,Tuesday
10,18973093.235557915
321,37545878.84161054
2,3, 1, 3, 0, 5,20.00,30.00,Tuesday
10,18973093.235557915
321,26107152.29155152
2,3, 1, 3, 0, 5,30.00,40.00,Tuesday
10,18973093.235557915
321,34602622.86408416
2,3, 1, 3, 0, 5,40.00,50.00,Tuesday
10,18973093.235557915
321,36247080.24677338
2,3, 1, 3, 0, 5,50.00,60.00,Tuesday
10,18973093.235557915
321,24686262.927205977
2,3, 1, 3, 0, 6, 0.00,10.00,Tuesday
10,18973093.235557915
321,33932383.936099458
2,3, 1, 3, 0, 6,10.00,20.00,Tuesday
10,18973093.235557915
321,35817713.72100186
2,3, 1, 3, 0, 6,20.00,30.00,Tuesday
10,18973093.235557915
321,24462101.059191936
2,3, 1, 3, 0, 6,30.00,40.00,Tuesday
10,18973093.235557915
321,33677444.146354828
2,3, 1, 3, 0, 6,40.00,50.00,Tuesday
10,18973093.235557915
321,35452553.14657153
2,3, 1, 3, 0, 6,50.00,60.00,Tuesday
10,18973093.235557915
321,23980253.34460761
2,3, 1, 3, 0, 7, 0.00,10.00,Tuesday
10,20560201.181338077
321,59852433.745669487
2,3, 1, 3, 0, 7,10.00,20.00,Tuesday
10,20560201.181338084
321,64944905.76830276
2,3, 1, 3, 0, 7,20.00,30.00,Tuesday
10,20560201.181338084
321,49170501.02082998
2,3, 1, 3, 0, 7,30.00,40.00,Tuesday
10,20560201.181338084
321,47631378.632344428
2,3, 1, 3, 0, 7,40.00,50.00,Tuesday
10,20560201.181338084
321,50691091.38859028
2,3, 1, 3, 0, 7,50.00,60.00,Tuesday
10,20560201.181338084
321,37880313.499661128
2,3, 1, 3, 0, 8, 0.00,10.00,Tuesday
10,28882385.7683292
321,62502062.70703024
2,3, 1, 3, 0, 8,10.00,20.00,Tuesday
10,30469493.71410937
321,62716348.862108979
2,3, 1, 3, 0, 8,20.00,30.00,Tuesday
10,30469493.71410937
321,48000593.46531932
2,3, 1, 3, 0, 8,30.00,40.00,Tuesday
10,30469493.71410937
321,51981859.63051151
2,3, 1, 3, 0, 8,40.00,50.00,Tuesday
10,30469493.71410937
321,57535881.803740728
2,3, 1, 3, 0, 8,50.00,60.00,Tuesday
10,30469493.71410937
321,41013637.77924145
2,3, 1, 3, 0, 9, 0.00,10.00,Tuesday
10,66205135.9785666
321,87859291.23034458
2,3, 1, 3, 0, 9,10.00,20.00,Tuesday
10,66205135.9785666
321,75312904.81881038
2,3, 1, 3, 0, 9,20.00,30.00,Tuesday
10,66205135.9785666
321,76493963.45960215
2,3, 1, 3, 0, 9,30.00,40.00,Tuesday
10,66205135.9785666
321,80914001.6030708
2,3, 1, 3, 0, 9,40.00,50.00,Tuesday
10,66205135.9785666
321,81341473.91748107
2,3, 1, 3, 0, 9,50.00,60.00,Tuesday
10,66205135.9785666
321,75751747.52056897
2,3, 1, 3, 0,10, 0.00,10.00,Tuesday
10,88680059.38231318
321,100599220.40180548
2,3, 1, 3, 0,10,10.00,20.00,Tuesday
10,88680059.38231318
321,81915279.01828459
2,3, 1, 3, 0,10,20.00,30.00,Tuesday
10,88680059.38231318
321,75260298.00024224
2,3, 1, 3, 0,10,30.00,40.00,Tuesday
10,88680059.38231318
321,81773448.7103323
2,3, 1, 3, 0,10,40.00,50.00,Tuesday
10,88680059.38231318
321,78323679.69774226
2,3, 1, 3, 0,10,50.00,60.00,Tuesday
10,88680059.38231318
321,81920908.18654132
2,3, 1, 3, 0,11, 0.00,10.00,Tuesday
10,90795041.78009048
321,121502318.27212963
2,3, 1, 3, 0,11,10.00,20.00,Tuesday
10,90795041.78009048
321,97743064.33578108
2,3, 1, 3, 0,11,20.00,30.00,Tuesday
10,90795041.78009048
321,100641640.96797765
2,3, 1, 3, 0,11,30.00,40.00,Tuesday
10,90795041.78009048
321,96914014.45862822
2,3, 1, 3, 0,11,40.00,50.00,Tuesday
10,90795041.78009048
321,93044499.89601785
2,3, 1, 3, 0,11,50.00,60.00,Tuesday
10,90795041.78009048
321,103027330.91659114
2,3, 1, 3, 0,12, 0.00,10.00,Tuesday
10,92910024.17786777
321,88637622.26142513
2,3, 1, 3, 0,12,10.00,20.00,Tuesday
10,92910024.17786777
321,87527688.51172477
2,3, 1, 3, 0,12,20.00,30.00,Tuesday
10,92910024.17786777
321,90300264.64953605
2,3, 1, 3, 0,12,30.00,40.00,Tuesday
10,92910024.17786777
321,91544471.22549019
2,3, 1, 3, 0,12,40.00,50.00,Tuesday
10,92910024.17786777
321,96894530.58849116
2,3, 1, 3, 0,12,50.00,60.00,Tuesday
10,92910024.17786777
321,101544227.65975307
2,3, 1, 3, 0,13, 0.00,10.00,Tuesday
10,92910024.17786777
321,98887202.78436606
2,3, 1, 3, 0,13,10.00,20.00,Tuesday
10,92910024.17786777
321,94404559.57667302
2,3, 1, 3, 0,13,20.00,30.00,Tuesday
10,92910024.17786777
321,94322789.46062872
2,3, 1, 3, 0,13,30.00,40.00,Tuesday
10,92910024.17786777
321,95819991.94923282
2,3, 1, 3, 0,13,40.00,50.00,Tuesday
10,92910024.17786777
321,104462367.86188744
2,3, 1, 3, 0,13,50.00,60.00,Tuesday