Program Version,EnergyPlus, Version 8.9.0-eba93e8e1b, YMD=2019.03.26 18:14
1,5,Environment Title[],Latitude[deg],Longitude[deg],Time Zone[],Elevation[m]
2,8,Day of Simulation[],Month[],Day of Month[],DST Indicator[1=yes 0=no],Hour[],StartMinute[],EndMinute[],DayType
3,5,Cumulative Day of Simulation[],Month[],Day of Month[],DST Indicator[1=yes 0=no],DayType  ! When Daily Report Variables Requested
4,2,Cumulative Days of Simulation[],Month[]  ! When Monthly Report Variables Requested
5,1,Cumulative Days of Simulation[] ! When Run Period Report Variables Requested
6,1,Calendar Year of Simulation[] ! When Annual Report Variables Requested
7,9,Environment,Site Outdoor Air Drybulb Temperature [C] !Monthly [Value,Min,Day,Hour,Minute,Max,Day,Hour,Minute]
8,1,Environment,Site Outdoor Air Wetbulb Temperature [C] !TimeStep
1125,1,SP-WHOLEBUILDING-AUTOMOTIVE FACILITY SYS-4 FLR-4 SCH-E HPLCMT-EAST ZN,Zone Air Temperature [C] !Hourly
1126,7,SP-WHOLEBUILDING-AUTOMOTIVE FACILITY SYS-4 FLR-4 SCH-E HPLCMT-EAST ZN,Zone Air Relative Humidity [%] !Daily [Value,Min,Hour,Minute,Max,Hour,Minute]
1165,1,SP-WHOLEBUILDING-CONVENTION CENTRE SYS-3 FLR-4 SCH-C HPLCMT-NORTH ZN,Zone Air Temperature [C] !Hourly
1166,7,SP-WHOLEBUILDING-CONVENTION CENTRE SYS-3 FLR-4 SCH-C HPLCMT-NORTH ZN,Zone Air Relative Humidity [%] !Daily [Value,Min,Hour,Minute,Max,Hour,Minute]
1205,1,SP-WHOLEBUILDING-COURTHOUSE SYS-3 FLR-4 SCH-A HPLCMT-SOUTH ZN,Zone Air Temperature [C] !Hourly
1206,7,SP-WHOLEBUILDING-COURTHOUSE SYS-3 FLR-4 SCH-A HPLCMT-SOUTH ZN,Zone Air Relative Humidity [%] !Daily [Value,Min,Hour,Minute,Max,Hour,Minute]
1245,1,SP-WHOLEBUILDING-DINING - BAR LOUNGE/LEISURE SYS-3 FLR-4 SCH-B HPLCMT-WEST ZN,Zone Air Temperature [C] !Hourly
1246,7,SP-WHOLEBUILDING-DINING - BAR LOUNGE/LEISURE SYS-3 FLR-4 SCH-B HPLCMT-WEST ZN,Zone Air Relative Humidity [%] !Daily [Value,Min,Hour,Minute,Max,Hour,Minute]
1285,1,SP-WHOLEBUILDING-DINING - CAFETERIA/FAST FOOD SYS-3 FLR-3 SCH-B HPLCMT-CORE ZN,Zone Air Temperature [C] !Hourly
1286,7,SP-WHOLEBUILDING-DINING - CAFETERIA/FAST FOOD SYS-3 FLR-3 SCH-B HPLCMT-CORE ZN,Zone Air Relative Humidity [%] !Daily [Value,Min,Hour,Minute,Max,Hour,Minute]
1325,1,SP-WHOLEBUILDING-DINING - FAMILY SYS-3 FLR-4 SCH-B HPLCMT-CORE ZN,Zone Air Temperature [C] !Hourly
1326,7,SP-WHOLEBUILDING-DINING - FAMILY SYS-3 FLR-4 SCH-B HPLCMT-CORE ZN,Zone Air Relative Humidity [%] !Daily [Value,Min,Hour,Minute,Max,Hour,Minute]
1365,1,SP-WHOLEBUILDING-DORMITORY SYS-3 FLR-3 SCH-G HPLCMT-SOUTH ZN,Zone Air Temperature [C] !Hourly
1366,7,SP-WHOLEBUILDING-DORMITORY SYS-3 FLR-3 SCH-G HPLCMT-SOUTH ZN,Zone Air Relative Humidity [%] !Daily [Value,Min,Hour,Minute,Max,Hour,Minute]
1405,1,SP-WHOLEBUILDING-EXERCISE CENTRE SYS-6 FLR-3 SCH-B HPLCMT-EAST ZN,Zone Air Temperature [C] !Hourly
1406,7,SP-WHOLEBUILDING-EXERCISE CENTRE SYS-6 FLR-3 SCH-B HPLCMT-EAST ZN,Zone Air Relative Humidity [%] !Daily [Value,Min,Hour,Minute,Max,Hour,Minute]
1445,1,SP-WHOLEBUILDING-FIRE STATION SYS-4 FLR-3 SCH-F HPLCMT-NORTH ZN,Zone Air Temperature [C] !Hourly
1446,7,SP-WHOLEBUILDING-FIRE STATION SYS-4 FLR-3 SCH-F HPLCMT-NORTH ZN,Zone Air Relative Humidity [%] !Daily [Value,Min,Hour,Minute,Max,Hour,Minute]
1485,1,SP-WHOLEBUILDING-GYMNASIUM SYS-6 FLR-3 SCH-B HPLCMT-WEST ZN,Zone Air Temperature [C] !Hourly
1486,7,SP-WHOLEBUILDING-GYMNASIUM SYS-6 FLR-3 SCH-B HPLCMT-WEST ZN,Zone Air Relative Humidity [%] !Daily [Value,Min,Hour,Minute,Max,Hour,Minute]
1525,1,SP-WHOLEBUILDING-HEALTH CARE CLINIC SYS-6 FLR-2 SCH-A HPLCMT-EAST ZN,Zone Air Temperature [C] !Hourly
1526,7,SP-WHOLEBUILDING-HEALTH CARE CLINIC SYS-6 FLR-2 SCH-A HPLCMT-EAST ZN,Zone Air Relative Humidity [%] !Daily [Value,Min,Hour,Minute,Max,Hour,Minute]
1565,1,SP-WHOLEBUILDING-HOSPITAL SYS-3 FLR-1 SCH-H HPLCMT-EAST ZN,Zone Air Temperature [C] !Hourly
1566,7,SP-WHOLEBUILDING-HOSPITAL SYS-3 FLR-1 SCH-H HPLCMT-EAST ZN,Zone Air Relative Humidity [%] !Daily [Value,Min,Hour,Minute,Max,Hour,Minute]
1605,1,SP-WHOLEBUILDING-HOTEL/MOTEL SYS-1 FLR-2 SCH-F HPLCMT-CORE ZN,Zone Air Temperature [C] !Hourly
1606,7,SP-WHOLEBUILDING-HOTEL/MOTEL SYS-1 FLR-2 SCH-F HPLCMT-CORE ZN,Zone Air Relative Humidity [%] !Daily [Value,Min,Hour,Minute,Max,Hour,Minute]
1645,1,SP-WHOLEBUILDING-LIBRARY SYS-2 FLR-1 SCH-C HPLCMT-NORTH ZN,Zone Air Temperature [C] !Hourly
1646,7,SP-WHOLEBUILDING-LIBRARY SYS-2 FLR-1 SCH-C HPLCMT-NORTH ZN,Zone Air Relative Humidity [%] !Daily [Value,Min,Hour,Minute,Max,Hour,Minute]
1685,1,SP-WHOLEBUILDING-LONG-TERM CARE - DWELLING UNITS SYS-1 FLR-1 SCH-J HPLCMT-SOUTH ZN,Zone Air Temperature [C] !Hourly
1686,7,SP-WHOLEBUILDING-LONG-TERM CARE - DWELLING UNITS SYS-1 FLR-1 SCH-J HPLCMT-SOUTH ZN,Zone Air Relative Humidity [%] !Daily [Value,Min,Hour,Minute,Max,Hour,Minute]
1725,1,SP-WHOLEBUILDING-LONG-TERM CARE - OTHER SYS-1 FLR-1 SCH-B HPLCMT-CORE ZN,Zone Air Temperature [C] !Hourly
1726,7,SP-WHOLEBUILDING-LONG-TERM CARE - OTHER SYS-1 FLR-1 SCH-B HPLCMT-CORE ZN,Zone Air Relative Humidity [%] !Daily [Value,Min,Hour,Minute,Max,Hour,Minute]
1765,1,SP-WHOLEBUILDING-MANUFACTURING FACILITY SYS-3 FLR-2 SCH-A HPLCMT-WEST ZN,Zone Air Temperature [C] !Hourly
1766,7,SP-WHOLEBUILDING-MANUFACTURING FACILITY SYS-3 FLR-2 SCH-A HPLCMT-WEST ZN,Zone Air Relative Humidity [%] !Daily [Value,Min,Hour,Minute,Max,Hour,Minute]
1805,1,SP-WHOLEBUILDING-MOTION PICTURE THEATRE SYS-3 FLR-2 SCH-C HPLCMT-NORTH ZN,Zone Air Temperature [C] !Hourly
1806,7,SP-WHOLEBUILDING-MOTION PICTURE THEATRE SYS-3 FLR-2 SCH-C HPLCMT-NORTH ZN,Zone Air Relative Humidity [%] !Daily [Value,Min,Hour,Minute,Max,Hour,Minute]
1845,1,SP-WHOLEBUILDING-MULTI-UNIT RESIDENTIAL BUILDING SYS-1 FLR-1 SCH-G HPLCMT-WEST ZN,Zone Air Temperature [C] !Hourly
1846,7,SP-WHOLEBUILDING-MULTI-UNIT RESIDENTIAL BUILDING SYS-1 FLR-1 SCH-G HPLCMT-WEST ZN,Zone Air Relative Humidity [%] !Daily [Value,Min,Hour,Minute,Max,Hour,Minute]
1885,1,SP-WHOLEBUILDING-MUSEUM SYS-2 FLR-2 SCH-C HPLCMT-SOUTH ZN,Zone Air Temperature [C] !Hourly
1886,7,SP-WHOLEBUILDING-MUSEUM SYS-2 FLR-2 SCH-C HPLCMT-SOUTH ZN,Zone Air Relative Humidity [%] !Daily [Value,Min,Hour,Minute,Max,Hour,Minute]
10,1,Electricity:Facility [J] !TimeStep
891,1,Gas:Facility [J] !TimeStep
End of Data Dictionary
1,FORT MCMURRAY AP ANN CLG .4% CONDNS DB=>MWB,  56.65,-111.22,  -7.00, 369.10
2,1, 7,21, 0, 1, 0.00,10.00,SummerDesignDay
8,14.218136923962174
10,228522512.67628003
891,116671844.67307368
2,1, 7,21, 0, 1,10.00,20.00,SummerDesignDay
8,14.171982153293495
10,226100726.8983729
891,102754080.23840566
2,1, 7,21, 0, 1,20.00,30.00,SummerDesignDay
8,14.125744780286427
10,225385692.06864054
891,137893292.53635458
2,1, 7,21, 0, 1,30.00,40.00,SummerDesignDay
8,14.079436086331978
10,224580059.90481515
891,139607087.18229363
2,1, 7,21, 0, 1,40.00,50.00,SummerDesignDay
8,14.033050387896898
10,223779789.14510045
891,139651293.16225524
2,1, 7,21, 0, 1,50.00,60.00,SummerDesignDay
8,13.986581233564835
10,222978695.10905899
891,139695917.46390034
2,1, 7,21, 0, 1, 0.00,60.00,SummerDesignDay
1125,24.840090180272357
1165,21.591184563222027
1205,21.613553433301634
1245,23.761123240307098
1285,23.99731193372061
1325,23.765903213239253
1365,23.999391025835693
1405,22.879823459673778
1445,23.998475641892197
1485,23.166002068650376
1525,21.476616383124964
1565,23.99873758881438
1605,23.88454164231638
1645,22.877396490830706
1685,23.842371429410098
1725,23.839110987243826
1765,23.421799295809408
1805,23.410951141104048
1845,23.901556722044317
1885,23.409263283617748
2,1, 7,21, 0, 2, 0.00,10.00,SummerDesignDay
8,13.95555882260429
10,176804391.2894232
891,70888367.56386559
2,1, 7,21, 0, 2,10.00,20.00,SummerDesignDay
8,13.924507755336454
10,175762645.50268556
891,130433723.79384427
2,1, 7,21, 0, 2,20.00,30.00,SummerDesignDay
8,13.893416042989206
10,175365008.95104323
891,89991691.25335537
2,1, 7,21, 0, 2,30.00,40.00,SummerDesignDay
8,13.862289589689029
10,174967055.12985177
891,111950670.55833866
2,1, 7,21, 0, 2,40.00,50.00,SummerDesignDay
8,13.831134407608739
10,174615869.05274023
891,128194149.8998541
2,1, 7,21, 0, 2,50.00,60.00,SummerDesignDay
8,13.799938415548118
10,174320862.86875627
891,72964689.42464417
2,1, 7,21, 0, 2, 0.00,60.00,SummerDesignDay
1125,24.65001330742001
1165,21.09246438735726
1205,21.092129574468339
1245,23.126142755132617
1285,24.202874804154793
1325,23.121887417459335
1365,23.91936978246377
1405,22.320206138009025
1445,23.994999565946335
1485,22.603510499189416
1525,21.37827919717093
1565,23.998755307067943
1605,23.884634557484348
1645,22.556449958493436
1685,23.841858698089216
1725,24.42398876962648
1765,23.075677663190619
1805,23.13796163671213
1845,23.901137605573849
1885,23.08068766305531
2,1, 7,21, 0, 3, 0.00,10.00,SummerDesignDay
8,13.776521671948676
10,141891228.04259477
891,61237546.770856957
2,1, 7,21, 0, 3,10.00,20.00,SummerDesignDay
8,13.753085235778466
10,141514251.04249285
891,45883008.4751279
2,1, 7,21, 0, 3,20.00,30.00,SummerDesignDay
8,13.729636002354969
10,141273229.46162368
891,17251193.49408891
2,1, 7,21, 0, 3,30.00,40.00,SummerDesignDay
8,13.706147375533054
10,141053195.0027032
891,60443859.90342726
2,1, 7,21, 0, 3,40.00,50.00,SummerDesignDay
8,13.682651961920304
10,140814087.20083568
891,12000.0
2,1, 7,21, 0, 3,50.00,60.00,SummerDesignDay
8,13.659136670643687
10,140453826.01663048
891,60313448.638128649
2,1, 7,21, 0, 3, 0.00,60.00,SummerDesignDay
1125,24.38628011676238
1165,20.69500241736703
1205,20.68052635986791
1245,22.353528544861548
1285,23.723598596043144
1325,22.340402172507056
1365,23.649869450110164
1405,21.684486742942995
1445,23.83827887341727
1485,21.94052699791119
1525,21.27929393047585
1565,24.001005044148554
1605,23.884742175381786
1645,22.306990468237499
1685,23.841416005419334
1725,24.173094839169239
1765,22.799407216604846
1805,22.918889054388285
1845,23.9007758539809
1885,22.8251988521536
2,1, 7,21, 0, 4, 0.00,10.00,SummerDesignDay
8,13.63560137410855
10,138271091.38786207
891,235635412.4093508
2,1, 7,21, 0, 4,10.00,20.00,SummerDesignDay
8,13.612040802606578
10,139066749.7870151
891,59420935.22194088
2,1, 7,21, 0, 4,20.00,30.00,SummerDesignDay
8,13.58846620506876
10,138916376.21852289
891,48254897.74883821
2,1, 7,21, 0, 4,30.00,40.00,SummerDesignDay
8,13.56487178447336
10,138763191.39203666
891,13900023.717964651
2,1, 7,21, 0, 4,40.00,50.00,SummerDesignDay
8,13.541257354069103
10,138625707.1699167
891,60007393.80946116
2,1, 7,21, 0, 4,50.00,60.00,SummerDesignDay
8,13.517617463812285
10,138475330.81588788
891,12000.0
2,1, 7,21, 0, 4, 0.00,60.00,SummerDesignDay
1125,24.07072374648962
1165,20.346524675147419
1205,20.319172603286245
1245,22.000187979199187
1285,23.375652201074716
1325,22.00534325418582
1365,23.3773594757146
1405,21.371552961515538
1445,23.520709586835165
1485,21.594335800722989
1525,21.175928235427116
1565,23.99316642052335
1605,23.884796833181964
1645,22.084668563934515
1685,23.84091730166745
1725,23.798175129354435
1765,22.54504167669165
1805,22.719513462255838
1845,23.900432522247795
1885,22.598420903842297
2,1, 7,21, 0, 5, 0.00,10.00,SummerDesignDay
8,13.50185415824011
10,138365027.52367128
891,59979072.510090049
2,1, 7,21, 0, 5,10.00,20.00,SummerDesignDay
8,13.486076034032447
10,138246976.28859899
891,12000.0
2,1, 7,21, 0, 5,20.00,30.00,SummerDesignDay
8,13.470289340350983
10,138141685.37467633
891,59941786.348238278
2,1, 7,21, 0, 5,30.00,40.00,SummerDesignDay
8,13.454493322631063
10,138029239.81867913
891,12000.0
2,1, 7,21, 0, 5,40.00,50.00,SummerDesignDay
8,13.438688835118548
10,137926893.9317343
891,59903324.852248888
2,1, 7,21, 0, 5,50.00,60.00,SummerDesignDay
8,13.422888173889437
10,137820075.33323906
891,12000.0
2,1, 7,21, 0, 5, 0.00,60.00,SummerDesignDay
1125,23.969538560967679
1165,20.195313191158424
1205,20.059035628367686
1245,21.886050601744853
1285,23.229314219414417
1325,21.914148139823597
1365,23.130385568573926
1405,21.289241084098316
1445,23.32515139266594
1485,21.372573133464014
1525,21.178024714414268
1565,23.967820571591419
1605,23.884646424477269
1645,21.882322070069468
1685,23.840399411824337
1725,23.73244560015141
1765,22.314776728840916
1805,22.592366146337456
1845,23.900064135849506
1885,22.395797834581474
2,1, 7,21, 0, 6, 0.00,10.00,SummerDesignDay
8,13.438688835118548
10,139436152.2638436
891,60692904.95222574
2,1, 7,21, 0, 6,10.00,20.00,SummerDesignDay
8,13.454493322631063
10,139879582.96850197
891,47125861.344273079
2,1, 7,21, 0, 6,20.00,30.00,SummerDesignDay
8,13.470289340350983
10,139736739.40051724
891,16330936.148323974
2,1, 7,21, 0, 6,30.00,40.00,SummerDesignDay
8,13.486076034032447
10,139941248.0104157
891,60781122.330150607
2,1, 7,21, 0, 6,40.00,50.00,SummerDesignDay
8,13.50185415824011
10,139950494.66317056
891,33900409.23334279
2,1, 7,21, 0, 6,50.00,60.00,SummerDesignDay
8,13.517617463812285
10,139965256.6532934
891,30311951.194518955
2,1, 7,21, 0, 6, 0.00,60.00,SummerDesignDay
1125,24.743600162302344
1165,20.412914742579348
1205,20.11747477888538
1245,21.942785496785736
1285,23.110825159507887
1325,21.985674945285763
1365,22.988185533818208
1405,21.571862497853336
1445,23.311837369312206
1485,21.18893397838887
1525,21.517029325245337
1565,23.945654707725394
1605,23.884416788905289
1645,21.783994600364978
1685,23.84004384998639
1725,23.690039960400868
1765,22.21058556156511
1805,22.59124746767331
1845,23.899685565969447
1885,22.311083197265629
2,1, 7,21, 0, 7, 0.00,10.00,SummerDesignDay
8,13.572736920571789
10,146799712.68591828
891,63789798.95426492
2,1, 7,21, 0, 7,10.00,20.00,SummerDesignDay
8,13.627748229152554
10,147778280.81086187
891,64204468.16557301
2,1, 7,21, 0, 7,20.00,30.00,SummerDesignDay
8,13.682651961920304
10,146747058.2731254
891,64217551.30581541
2,1, 7,21, 0, 7,30.00,40.00,SummerDesignDay
8,13.737448093244995
10,146963332.60222847
891,64226361.41602558
2,1, 7,21, 0, 7,40.00,50.00,SummerDesignDay
8,13.792137011831216
10,147258212.64610503
891,64235114.29756572
2,1, 7,21, 0, 7,50.00,60.00,SummerDesignDay
8,13.846719282840333
10,147844944.16914
891,69202422.08876752
2,1, 7,21, 0, 7, 0.00,60.00,SummerDesignDay
1125,25.827949018098804
1165,20.8219901142923
1205,20.62770623681892
1245,22.131122601887968
1285,23.014072030034716
1325,22.202208424589214
1365,23.14709666742382
1405,21.908676431617228
1445,23.3999795924925
1485,21.036527086329536
1525,21.863155921542384
1565,23.963912365278813
1605,23.88404378425878
1645,21.893636577474316
1685,23.83964586769693
1725,23.653625615301779
1765,22.332057756131705
1805,22.615291064197494
1845,23.899354273426967
1885,22.441769859722326
2,1, 7,21, 0, 8, 0.00,10.00,SummerDesignDay
8,13.978831900527043
10,179023941.10094736
891,136488571.83906854
2,1, 7,21, 0, 8,10.00,20.00,SummerDesignDay
8,14.110321014287419
10,180340413.24815584
891,131634954.59414779
2,1, 7,21, 0, 8,20.00,30.00,SummerDesignDay
8,14.241191509616986
10,181197459.68063814
891,107310369.5730171
2,1, 7,21, 0, 8,30.00,40.00,SummerDesignDay
8,14.371447531304272
10,180457140.8298374
891,100550028.91914554
2,1, 7,21, 0, 8,40.00,50.00,SummerDesignDay
8,14.501093766564925
10,184337070.55698604
891,134659620.84614048
2,1, 7,21, 0, 8,50.00,60.00,SummerDesignDay
8,14.630134792273804
10,187498940.64625366
891,134843601.25353516
2,1, 7,21, 0, 8, 0.00,60.00,SummerDesignDay
1125,24.013701999841869
1165,21.904964346498259
1205,23.262083391350079
1245,22.55014156053978
1285,23.16568018418329
1325,22.65815914579871
1365,23.77077442871413
1405,22.17310224339194
1445,23.766299578249897
1485,20.93623513722618
1525,22.29356121723694
1565,23.999232672771318
1605,23.938495497281268
1645,22.308160782104595
1685,23.91341673985724
1725,23.62793902006555
1765,23.023453831151376
1805,22.913653391292827
1845,23.94721145252006
1885,22.902703581583464
2,1, 7,21, 0, 9, 0.00,10.00,SummerDesignDay
8,14.773641492809972
10,259283491.3850522
891,112025396.7079993
2,1, 7,21, 0, 9,10.00,20.00,SummerDesignDay
8,14.91640948124148
10,267963163.1217512
891,112581591.00702581
2,1, 7,21, 0, 9,20.00,30.00,SummerDesignDay
8,15.05843890714102
10,275714278.97508928
891,134394904.74033559
2,1, 7,21, 0, 9,30.00,40.00,SummerDesignDay
8,15.199735893563798
10,288510484.4868722
891,141023725.3869046
2,1, 7,21, 0, 9,40.00,50.00,SummerDesignDay
8,15.340306256439395
10,296413438.25166729
891,141046726.51977954
2,1, 7,21, 0, 9,50.00,60.00,SummerDesignDay
8,15.48015101768072
10,305763478.7239467
891,141071135.21983776
2,1, 7,21, 0, 9, 0.00,60.00,SummerDesignDay
1125,23.999622865774879
1165,23.83154815569377
1205,23.99839050649237
1245,23.736641923070424
1285,23.8109507655259
1325,23.80697663286422
1365,23.998706723884657
1405,22.378695456300027
1445,23.99912705649381
1485,20.886603093561808
1525,23.344408951652317
1565,23.998905404331237
1605,23.909661287837307
1645,23.6212286590405
1685,23.875022731515796
1725,23.604693828161357
1765,23.98071117191527
1805,23.843507975197498
1845,23.92143583465857
1885,23.833675413928373
2,1, 7,21, 0,10, 0.00,10.00,SummerDesignDay
8,15.60467292907716
10,373350261.0700815
891,172847664.5671414
2,1, 7,21, 0,10,10.00,20.00,SummerDesignDay
8,15.72862731650033
10,383375380.5797279
891,209174694.07077617
2,1, 7,21, 0,10,20.00,30.00,SummerDesignDay
8,15.852017409284228
10,395644793.2438648
891,228184641.3843414
2,1, 7,21, 0,10,30.00,40.00,SummerDesignDay
8,15.974848118364367
10,398464700.58613476
891,177087138.15702836
2,1, 7,21, 0,10,40.00,50.00,SummerDesignDay
8,16.097123145563505
10,406240101.9938107
891,181234858.20367707
2,1, 7,21, 0,10,50.00,60.00,SummerDesignDay
8,16.218846351168599
10,411402573.2387481
891,230459673.3824385
2,1, 7,21, 0,10, 0.00,60.00,SummerDesignDay
1125,23.999108525640876
1165,23.999447012425845
1205,23.998845307940639
1245,23.999351661683194
1285,23.999596096052625
1325,23.99929575290167
1365,23.99888188606759
1405,22.857804633277327
1445,23.998951252220665
1485,21.850533397256798
1525,23.82637739543577
1565,23.998863641650627
1605,23.901050777712084
1645,24.048014587187529
1685,23.863350208733665
1725,23.81800163659685
1765,23.99943355825552
1805,23.999705543364429
1845,23.913838636088785
1885,24.064852150190235
2,1, 7,21, 0,11, 0.00,10.00,SummerDesignDay
8,16.325793027093189
10,441651080.0277521
891,199407709.0050779
2,1, 7,21, 0,11,10.00,20.00,SummerDesignDay
8,16.432322158488288
10,448121115.86037668
891,174103917.12220199
2,1, 7,21, 0,11,20.00,30.00,SummerDesignDay
8,16.538424180249178
10,452228796.6366369
891,195120183.4682398
2,1, 7,21, 0,11,30.00,40.00,SummerDesignDay
8,16.644108396469087
10,456547605.50693008
891,225092271.61266689
2,1, 7,21, 0,11,40.00,50.00,SummerDesignDay
8,16.749376736593655
10,460672827.3925641
891,183085263.84797249
2,1, 7,21, 0,11,50.00,60.00,SummerDesignDay
8,16.854232613237156
10,464624223.4994351
891,174177538.84361125
2,1, 7,21, 0,11, 0.00,60.00,SummerDesignDay
1125,23.998616562057547
1165,23.998902141631079
1205,23.998246350865505
1245,23.998626318010893
1285,23.998872943191718
1325,23.998461039140215
1365,23.998627640405727
1405,23.069931090894653
1445,23.998909626726236
1485,22.000737750893334
1525,23.766330443794119
1565,23.998809936431078
1605,23.88391954990155
1645,24.132585588616693
1685,23.83983729902644
1725,23.837748857820999
1765,23.999308310904195
1805,23.99935274721558
1845,23.898583852333784
1885,24.180101026136716
2,1, 7,21, 0,12, 0.00,10.00,SummerDesignDay
8,16.92390823520069
10,485913919.90262058
891,150454295.50819344
2,1, 7,21, 0,12,10.00,20.00,SummerDesignDay
8,16.99340178950456
10,487193008.5197578
891,148231283.13784237
2,1, 7,21, 0,12,20.00,30.00,SummerDesignDay
8,17.06272006743463
10,489899820.2054173
891,148229394.32177005
2,1, 7,21, 0,12,30.00,40.00,SummerDesignDay
8,17.131853229172639
10,492770550.8744823
891,149402669.94158963
2,1, 7,21, 0,12,40.00,50.00,SummerDesignDay
8,17.200807172194087
10,495462981.2897931
891,151329166.27947263
2,1, 7,21, 0,12,50.00,60.00,SummerDesignDay
8,17.269582116758607
10,498795584.6746975
891,151337693.08013187
2,1, 7,21, 0,12, 0.00,60.00,SummerDesignDay
1125,23.998632654509824
1165,23.998569986410684
1205,23.997937788534505
1245,23.9981521358946
1285,23.99832075951802
1325,23.997921720291676
1365,23.998879981812665
1405,23.263686085800655
1445,23.9991079091225
1485,22.320746647842243
1525,23.582197667986219
1565,23.998749036709424
1605,23.8841834432732
1645,24.155247466160064
1685,23.84036725168514
1725,23.83830758357895
1765,23.999224312567738
1805,23.99906470025147
1845,23.898927369213664
1885,24.209875062421788
2,1, 7,21, 0,13, 0.00,10.00,SummerDesignDay
8,17.32447360221357
10,501688670.4981589
891,182569807.19029353
2,1, 7,21, 0,13,10.00,20.00,SummerDesignDay
8,17.379251291230806
10,502292544.08120688
891,185551781.95250986
2,1, 7,21, 0,13,20.00,30.00,SummerDesignDay
8,17.433921312061729
10,508043852.4667259
891,166317263.23059083
2,1, 7,21, 0,13,30.00,40.00,SummerDesignDay
8,17.488473222557489
10,506367617.7159752
891,157248431.6372123
2,1, 7,21, 0,13,40.00,50.00,SummerDesignDay
8,17.542913447755134
10,510006482.6195322
891,157326042.71024017
2,1, 7,21, 0,13,50.00,60.00,SummerDesignDay
8,17.59724609886134
10,511846915.2707309
891,157404745.80617408
2,1, 7,21, 0,13, 0.00,60.00,SummerDesignDay
1125,23.998658204966586
1165,23.99821256149551
1205,23.99838174963313
1245,23.99778289225448
1285,23.997852532433546
1325,23.9975137334649
1365,23.999098496167766
1405,23.377822845503773
1445,23.999313996970714
1485,23.041158534236158
1525,23.423649818262878
1565,23.998838764256154
1605,23.893091738630987
1645,24.159532233184679
1685,23.85285255497965
1725,23.855035319457885
1765,23.999358068465218
1805,23.998656493960224
1845,23.90684652480553
1885,24.218580272432054
2,1, 7,21, 0,14, 0.00,10.00,SummerDesignDay
8,17.6311450462694
10,512670032.30541846
891,191117513.00382639
2,1, 7,21, 0,14,10.00,20.00,SummerDesignDay
8,17.665000449016245
10,514610274.89534327
891,212684351.2311913
2,1, 7,21, 0,14,20.00,30.00,SummerDesignDay
8,17.698812743128934
10,516255084.1912889
891,175795495.35313825
2,1, 7,21, 0,14,30.00,40.00,SummerDesignDay
8,17.732582050940107
10,517446045.7025608
891,167836438.74647499
2,1, 7,21, 0,14,40.00,50.00,SummerDesignDay
8,17.766307345121004
10,518121201.91778388
891,181877113.67142109
2,1, 7,21, 0,14,50.00,60.00,SummerDesignDay
8,17.79999023167558
10,519262670.2457974
891,212749397.22955085
2,1, 7,21, 0,14, 0.00,60.00,SummerDesignDay
1125,23.998538814979289
1165,23.997743218680296
1205,23.99850004212043
1245,23.99712470613009
1285,24.04079365157034
1325,23.996854734663985
1365,23.99901373281762
1405,23.424216518426108
1445,23.999228871224664
1485,23.495309135224976
1525,23.400891112893715
1565,23.998701341794236
1605,23.884449600413107
1645,24.190775396318747
1685,23.841270741841613
1725,23.838616289435597
1765,23.999336835220999
1805,23.99791406065015
1845,23.89936988898887
1885,24.25431285401332
2,1, 7,21, 0,15, 0.00,10.00,SummerDesignDay
8,17.79999023167558
10,519760964.44952246
891,186519278.24709083
2,1, 7,21, 0,15,10.00,20.00,SummerDesignDay
8,17.79999023167558
10,520014243.06139829
891,168002485.23752824
2,1, 7,21, 0,15,20.00,30.00,SummerDesignDay
8,17.79999023167558
10,519958450.02158597
891,172392642.2402356
2,1, 7,21, 0,15,30.00,40.00,SummerDesignDay
8,17.79999023167558
10,519736700.63108476
891,213246392.2732432
2,1, 7,21, 0,15,40.00,50.00,SummerDesignDay
8,17.79999023167558
10,521262186.46103128
891,196145544.58374704
2,1, 7,21, 0,15,50.00,60.00,SummerDesignDay
8,17.79999023167558
10,520085556.9923866
891,167967168.223995
2,1, 7,21, 0,15, 0.00,60.00,SummerDesignDay
1125,23.998524176529938
1165,23.997646294972115
1205,23.99832243285338
1245,23.99722713833366
1285,24.011147837539995
1325,23.997221181383709
1365,23.99896964924537
1405,23.516158101589828
1445,23.99911764132356
1485,23.52337115885598
1525,23.57120742831332
1565,23.99865913233009
1605,23.884595446218289
1645,24.358741449060017
1685,23.841712129896384
1725,23.838777326517684
1765,23.9991375991083
1805,23.99757821885456
1845,23.89949237992175
1885,24.28202548191349
2,1, 7,21, 0,16, 0.00,10.00,SummerDesignDay
8,17.759562446305357
10,517448581.5001855
891,157909410.9903044
2,1, 7,21, 0,16,10.00,20.00,SummerDesignDay
8,17.71907809634183
10,515311559.2210995
891,157157512.7041609
2,1, 7,21, 0,16,20.00,30.00,SummerDesignDay
8,17.67853788661001
10,514375434.39756098
891,184093089.223474
2,1, 7,21, 0,16,30.00,40.00,SummerDesignDay
8,17.63791796367351
10,512410789.8581346
891,183950219.89151836
2,1, 7,21, 0,16,40.00,50.00,SummerDesignDay
8,17.59724609886134
10,510394014.55470779
891,173532423.9876954
2,1, 7,21, 0,16,50.00,60.00,SummerDesignDay
8,17.55650676726033
10,508332623.68880578
891,156709895.5299157
2,1, 7,21, 0,16, 0.00,60.00,SummerDesignDay
1125,23.9985715646109
1165,23.99761119464036
1205,23.998164902799045
1245,23.997747756486107
1285,23.998026532459965
1325,23.99811972510788
1365,23.998691766668228
1405,23.547223710596886
1445,23.999144511969008
1485,23.456333760360868
1525,23.62606643552947
1565,23.998600611320428
1605,23.884821595861394
1645,24.34237358140368
1685,23.842074335769369
1725,23.839181382775764
1765,23.998945788877355
1805,23.997376341423406
1845,23.899500207644608
1885,24.257540101642467
2,1, 7,21, 0,17, 0.00,10.00,SummerDesignDay
8,17.50209486331892
10,507113496.2093386
891,147962039.11156655
2,1, 7,21, 0,17,10.00,20.00,SummerDesignDay
8,17.447570789624618
10,503941538.4502391
891,147066573.1845187
2,1, 7,21, 0,17,20.00,30.00,SummerDesignDay
8,17.392929544208135
10,500096221.80089619
891,147067840.62275488
2,1, 7,21, 0,17,30.00,40.00,SummerDesignDay
8,17.33818013976614
10,497713944.4052722
891,147067482.0052779
2,1, 7,21, 0,17,40.00,50.00,SummerDesignDay
8,17.283317298559309
10,494988731.6751976
891,147067069.1296832
2,1, 7,21, 0,17,50.00,60.00,SummerDesignDay
8,17.22833552437677
10,493269923.0851358
891,147066657.29012297
2,1, 7,21, 0,17, 0.00,60.00,SummerDesignDay
1125,23.998666791745138
1165,23.99771224307945
1205,23.99842631460812
1245,23.998407367186457
1285,23.998577588515997
1325,23.998806382550059
1365,23.998192627695308
1405,23.63816686426215
1445,23.99912926081154
1485,23.529356953842539
1525,23.61985094693699
1565,23.99855073398136
1605,23.88499301872206
1645,24.39826154090081
1685,23.842191591120554
1725,23.83952469962809
1765,23.998789742165334
1805,23.997263273438553
1845,23.89955895927751
1885,24.403233995720304
2,1, 7,21, 0,18, 0.00,10.00,SummerDesignDay
8,17.159453019160176
10,483648041.20203998
891,146936269.9142402
2,1, 7,21, 0,18,10.00,20.00,SummerDesignDay
8,17.090391773337136
10,478144878.84154269
891,146921309.12295143
2,1, 7,21, 0,18,20.00,30.00,SummerDesignDay
8,17.021151077964786
10,475695590.7124844
891,146920607.44534133
2,1, 7,21, 0,18,30.00,40.00,SummerDesignDay
8,16.951729380464653
10,472781866.3464184
891,146919881.7103992
2,1, 7,21, 0,18,40.00,50.00,SummerDesignDay
8,16.882126503829249
10,469435456.05669316
891,146919156.12440089
2,1, 7,21, 0,18,50.00,60.00,SummerDesignDay
8,16.812341807494034
10,466159867.0784075
891,146918431.66423277
2,1, 7,21, 0,18, 0.00,60.00,SummerDesignDay
1125,23.998964016546798
1165,23.998188057652599
1205,23.998903733772136
1245,23.998645068982559
1285,23.998511760425488
1325,23.999070338775856
1365,23.997699420280836
1405,23.79254966721828
1445,23.99901232785273
1485,23.72182663244845
1525,23.470959340145045
1565,23.998524236262076
1605,23.885072668322949
1645,24.296769363510568
1685,23.84222448628074
1725,23.839753423111849
1765,23.99879672190973
1805,23.997406525224759
1845,23.899570332856454
1885,24.343286989239446
2,1, 7,21, 0,19, 0.00,10.00,SummerDesignDay
8,16.707321072823203
10,438056671.392031
891,149208101.5699104
2,1, 7,21, 0,19,10.00,20.00,SummerDesignDay
8,16.601881826644556
10,434657674.9361871
891,149472455.35380713
2,1, 7,21, 0,19,20.00,30.00,SummerDesignDay
8,16.496030555252849
10,429287022.7695117
891,149481326.1495047
2,1, 7,21, 0,19,30.00,40.00,SummerDesignDay
8,16.389760181474104
10,423292288.3028472
891,149490653.65916903
2,1, 7,21, 0,19,40.00,50.00,SummerDesignDay
8,16.283067654262039
10,418630288.6671069
891,149499930.40927414
2,1, 7,21, 0,19,50.00,60.00,SummerDesignDay
8,16.17595057957811
10,412959851.2166515
891,149509138.02723558
2,1, 7,21, 0,19, 0.00,60.00,SummerDesignDay
1125,23.999655354285449
1165,23.998710020438364
1205,23.999522169282785
1245,23.998425868622126
1285,23.997926501189
1325,23.99885189558549
1365,23.99669349627489
1405,23.979510982576757
1445,23.998909206548225
1485,23.97100904698189
1525,22.864066303642486
1565,23.998504604112957
1605,23.885117895248809
1645,24.157044646802658
1685,23.84224201267288
1725,23.839682799280724
1765,23.999313762607036
1805,23.99791964186139
1845,23.89936990131859
1885,24.21992079920201
2,1, 7,21, 0,20, 0.00,10.00,SummerDesignDay
8,16.097123145563505
10,387721492.90458366
891,149431405.34860856
2,1, 7,21, 0,20,10.00,20.00,SummerDesignDay
8,16.018070242471564
10,385527361.8737706
891,150155630.66525839
2,1, 7,21, 0,20,20.00,30.00,SummerDesignDay
8,15.938779752340516
10,381696236.49195149
891,150172585.5904667
2,1, 7,21, 0,20,30.00,40.00,SummerDesignDay
8,15.85926152575189
10,379800291.1793029
891,150264125.70265908
2,1, 7,21, 0,20,40.00,50.00,SummerDesignDay
8,15.779503718563929
10,373315629.1627514
891,150276950.60042075
2,1, 7,21, 0,20,50.00,60.00,SummerDesignDay
8,15.699515709672767
10,370317428.11869958
891,151779335.1328268
2,1, 7,21, 0,20, 0.00,60.00,SummerDesignDay
1125,25.425707528383599
1165,23.999604704166189
1205,23.999939247843007
1245,23.998474555006934
1285,23.99766750885529
1325,23.998750537789083
1365,23.997343982568596
1405,23.99895964300323
1445,23.998889494770198
1485,23.998958679324546
1525,22.381145256167433
1565,23.998779678137795
1605,23.91739493172406
1645,24.02559667944144
1685,23.88648858809836
1725,23.884564100102194
1765,23.999804985567836
1805,23.999112395476617
1845,23.930997380111977
1885,24.036710481666608
2,1, 7,21, 0,21, 0.00,10.00,SummerDesignDay
8,15.63389147320404
10,363027235.39723047
891,224949565.02888463
2,1, 7,21, 0,21,10.00,20.00,SummerDesignDay
8,15.56810827419793
10,361267472.7423354
891,205966521.47283048
2,1, 7,21, 0,21,20.00,30.00,SummerDesignDay
8,15.502170882753524
10,357172690.4316973
891,177172234.15177126
2,1, 7,21, 0,21,30.00,40.00,SummerDesignDay
8,15.436068032613852
10,353042123.6579636