Program Version,EnergyPlus, Version 8.9.0-eba93e8e1b, YMD=2019.03.20 18:03
1,5,Environment Title[],Latitude[deg],Longitude[deg],Time Zone[],Elevation[m]
2,8,Day of Simulation[],Month[],Day of Month[],DST Indicator[1=yes 0=no],Hour[],StartMinute[],EndMinute[],DayType
3,5,Cumulative Day of Simulation[],Month[],Day of Month[],DST Indicator[1=yes 0=no],DayType  ! When Daily Report Variables Requested
4,2,Cumulative Days of Simulation[],Month[]  ! When Monthly Report Variables Requested
5,1,Cumulative Days of Simulation[] ! When Run Period Report Variables Requested
6,1,Calendar Year of Simulation[] ! When Annual Report Variables Requested
7,9,Environment,Site Outdoor Air Drybulb Temperature [C] !Monthly [Value,Min,Day,Hour,Minute,Max,Day,Hour,Minute]
8,1,Environment,Site Outdoor Air Wetbulb Temperature [C] !TimeStep
1125,1,ALL_ST=WHOLEBUILDING_FL=STORY 1_SCH=A,Zone Air Temperature [C] !Hourly
1126,7,ALL_ST=WHOLEBUILDING_FL=STORY 1_SCH=A,Zone Air Relative Humidity [%] !Daily [Value,Min,Hour,Minute,Max,Hour,Minute]
1165,1,ALL_ST=WHOLEBUILDING_FL=STORY 1_SCH=D,Zone Air Temperature [C] !Hourly
1166,7,ALL_ST=WHOLEBUILDING_FL=STORY 1_SCH=D,Zone Air Relative Humidity [%] !Daily [Value,Min,Hour,Minute,Max,Hour,Minute]
1205,1,ALL_ST=WHOLEBUILDING_FL=STORY 1_SCH=E,Zone Air Temperature [C] !Hourly
1206,7,ALL_ST=WHOLEBUILDING_FL=STORY 1_SCH=E,Zone Air Relative Humidity [%] !Daily [Value,Min,Hour,Minute,Max,Hour,Minute]
1245,1,ALL_ST=WHOLEBUILDING_FL=STORY 1_SCH=E 1,Zone Air Temperature [C] !Hourly
1246,7,ALL_ST=WHOLEBUILDING_FL=STORY 1_SCH=E 1,Zone Air Relative Humidity [%] !Daily [Value,Min,Hour,Minute,Max,Hour,Minute]
1285,1,ALL_ST=WHOLEBUILDING_FL=STORY 1_SCH=E 2,Zone Air Temperature [C] !Hourly
1286,7,ALL_ST=WHOLEBUILDING_FL=STORY 1_SCH=E 2,Zone Air Relative Humidity [%] !Daily [Value,Min,Hour,Minute,Max,Hour,Minute]
1325,1,ALL_ST=WHOLEBUILDING_FL=STORY 2_SCH=A,Zone Air Temperature [C] !Hourly
1326,7,ALL_ST=WHOLEBUILDING_FL=STORY 2_SCH=A,Zone Air Relative Humidity [%] !Daily [Value,Min,Hour,Minute,Max,Hour,Minute]
1365,1,ALL_ST=WHOLEBUILDING_FL=STORY 2_SCH=E,Zone Air Temperature [C] !Hourly
1366,7,ALL_ST=WHOLEBUILDING_FL=STORY 2_SCH=E,Zone Air Relative Humidity [%] !Daily [Value,Min,Hour,Minute,Max,Hour,Minute]
1405,1,ALL_ST=WHOLEBUILDING_FL=STORY 2_SCH=E 1,Zone Air Temperature [C] !Hourly
1406,7,ALL_ST=WHOLEBUILDING_FL=STORY 2_SCH=E 1,Zone Air Relative Humidity [%] !Daily [Value,Min,Hour,Minute,Max,Hour,Minute]
1445,1,ALL_ST=WHOLEBUILDING_FL=STORY 2_SCH=E 2,Zone Air Temperature [C] !Hourly
1446,7,ALL_ST=WHOLEBUILDING_FL=STORY 2_SCH=E 2,Zone Air Relative Humidity [%] !Daily [Value,Min,Hour,Minute,Max,Hour,Minute]
1485,1,ALL_ST=WHOLEBUILDING_FL=STORY 2_SCH=H,Zone Air Temperature [C] !Hourly
1486,7,ALL_ST=WHOLEBUILDING_FL=STORY 2_SCH=H,Zone Air Relative Humidity [%] !Daily [Value,Min,Hour,Minute,Max,Hour,Minute]
1525,1,ALL_ST=WHOLEBUILDING_FL=STORY 3_SCH=B,Zone Air Temperature [C] !Hourly
1526,7,ALL_ST=WHOLEBUILDING_FL=STORY 3_SCH=B,Zone Air Relative Humidity [%] !Daily [Value,Min,Hour,Minute,Max,Hour,Minute]
1565,1,ALL_ST=WHOLEBUILDING_FL=STORY 4_SCH=A,Zone Air Temperature [C] !Hourly
1566,7,ALL_ST=WHOLEBUILDING_FL=STORY 4_SCH=A,Zone Air Relative Humidity [%] !Daily [Value,Min,Hour,Minute,Max,Hour,Minute]
1605,1,ALL_ST=WORKSHOP SPACE_FL=STORY 3_SCH=A,Zone Air Temperature [C] !Hourly
1606,7,ALL_ST=WORKSHOP SPACE_FL=STORY 3_SCH=A,Zone Air Relative Humidity [%] !Daily [Value,Min,Hour,Minute,Max,Hour,Minute]
1645,1,WET_ST=WASHROOM-SCH-C_FL=STORY 4_SCHE,Zone Air Temperature [C] !Hourly
1646,7,WET_ST=WASHROOM-SCH-C_FL=STORY 4_SCHE,Zone Air Relative Humidity [%] !Daily [Value,Min,Hour,Minute,Max,Hour,Minute]
1685,1,WET_ST=WASHROOM-SCH-D_FL=STORY 4_SCHE,Zone Air Temperature [C] !Hourly
1686,7,WET_ST=WASHROOM-SCH-D_FL=STORY 4_SCHE,Zone Air Relative Humidity [%] !Daily [Value,Min,Hour,Minute,Max,Hour,Minute]
1725,1,WET_ST=WASHROOM-SCH-E_FL=STORY 4_SCHE,Zone Air Temperature [C] !Hourly
1726,7,WET_ST=WASHROOM-SCH-E_FL=STORY 4_SCHE,Zone Air Relative Humidity [%] !Daily [Value,Min,Hour,Minute,Max,Hour,Minute]
1765,1,WET_ST=WASHROOM-SCH-F_FL=STORY 3_SCHE,Zone Air Temperature [C] !Hourly
1766,7,WET_ST=WASHROOM-SCH-F_FL=STORY 3_SCHE,Zone Air Relative Humidity [%] !Daily [Value,Min,Hour,Minute,Max,Hour,Minute]
1805,1,WET_ST=WASHROOM-SCH-G_FL=STORY 3_SCHE,Zone Air Temperature [C] !Hourly
1806,7,WET_ST=WASHROOM-SCH-G_FL=STORY 3_SCHE,Zone Air Relative Humidity [%] !Daily [Value,Min,Hour,Minute,Max,Hour,Minute]
1845,1,WET_ST=WASHROOM-SCH-H_FL=STORY 4_SCHE,Zone Air Temperature [C] !Hourly
1846,7,WET_ST=WASHROOM-SCH-H_FL=STORY 4_SCHE,Zone Air Relative Humidity [%] !Daily [Value,Min,Hour,Minute,Max,Hour,Minute]
1885,1,WET_ST=WASHROOM-SCH-I_FL=STORY 3_SCHE,Zone Air Temperature [C] !Hourly
1886,7,WET_ST=WASHROOM-SCH-I_FL=STORY 3_SCHE,Zone Air Relative Humidity [%] !Daily [Value,Min,Hour,Minute,Max,Hour,Minute]
10,1,Electricity:Facility [J] !TimeStep
891,1,Gas:Facility [J] !TimeStep
End of Data Dictionary
1,FORT MCMURRAY AP ANN CLG .4% CONDNS DB=>MWB,  56.65,-111.22,  -7.00, 369.10
2,1, 7,21, 0, 1, 0.00,10.00,SummerDesignDay
8,14.218136923962174
10,64277974.830032389
891,11338987.036282374
2,1, 7,21, 0, 1,10.00,20.00,SummerDesignDay
8,14.171982153293495
10,63830345.82093895
891,10254561.090617337
2,1, 7,21, 0, 1,20.00,30.00,SummerDesignDay
8,14.125744780286427
10,63688223.57054603
891,15989366.959226858
2,1, 7,21, 0, 1,30.00,40.00,SummerDesignDay
8,14.079436086331978
10,63543930.364620979
891,18696534.342960698
2,1, 7,21, 0, 1,40.00,50.00,SummerDesignDay
8,14.033050387896898
10,63399579.321012567
891,18719478.45678243
2,1, 7,21, 0, 1,50.00,60.00,SummerDesignDay
8,13.986581233564835
10,63257452.62303065
891,18743768.86469252
2,1, 7,21, 0, 1, 0.00,60.00,SummerDesignDay
1125,24.40971859733666
1165,24.728446316005674
1205,23.030996505357213
1245,22.752134123022544
1285,22.99891190719231
1325,24.632809175100346
1365,23.35115611110577
1405,23.795124494917827
1445,23.757977197776957
1485,23.998673551612318
1525,23.998539187441609
1565,24.072958854735196
1605,24.202127447536303
1645,24.520541356247006
1685,24.553929830564454
1725,24.595165536053519
1765,25.486722012935166
1805,25.538990108260518
1845,24.516896243122046
1885,25.549452116787703
2,1, 7,21, 0, 2, 0.00,10.00,SummerDesignDay
8,13.95555882260429
10,56359090.77302288
891,13533865.613033975
2,1, 7,21, 0, 2,10.00,20.00,SummerDesignDay
8,13.924507755336454
10,56153971.32110842
891,6690787.895276907
2,1, 7,21, 0, 2,20.00,30.00,SummerDesignDay
8,13.893416042989206
10,56097886.908863078
891,15681175.210035254
2,1, 7,21, 0, 2,30.00,40.00,SummerDesignDay
8,13.862289589689029
10,56045608.93822366
891,17894860.164997806
2,1, 7,21, 0, 2,40.00,50.00,SummerDesignDay
8,13.831134407608739
10,55991158.29962528
891,17932537.02140307
2,1, 7,21, 0, 2,50.00,60.00,SummerDesignDay
8,13.799938415548118
10,55939143.61279225
891,15716982.217072024
2,1, 7,21, 0, 2, 0.00,60.00,SummerDesignDay
1125,24.2783747596374
1165,24.611292405089388
1205,22.763890977368349
1245,22.4918826020397
1285,22.733977831023965
1325,24.428098009176819
1365,23.115200118847495
1405,23.529911797338305
1445,23.495649049242645
1485,23.998669963753767
1525,24.69590996933376
1565,23.616208857120826
1605,23.824016260770887
1645,24.239012320948065
1685,24.25098453348079
1725,24.293886246275453
1765,25.304980606913984
1805,25.314312708301445
1845,24.221869946563534
1885,25.321009029727933
2,1, 7,21, 0, 3, 0.00,10.00,SummerDesignDay
8,13.776521671948676
10,51658905.09759495
891,1908818.9819604627
2,1, 7,21, 0, 3,10.00,20.00,SummerDesignDay
8,13.753085235778466
10,51614339.855350349
891,15046929.102182525
2,1, 7,21, 0, 3,20.00,30.00,SummerDesignDay
8,13.729636002354969
10,51562321.519628148
891,12000.0
2,1, 7,21, 0, 3,30.00,40.00,SummerDesignDay
8,13.706147375533054
10,51516020.526885669
891,15023487.858161586
2,1, 7,21, 0, 3,40.00,50.00,SummerDesignDay
8,13.682651961920304
10,51467445.61519008
891,12000.0
2,1, 7,21, 0, 3,50.00,60.00,SummerDesignDay
8,13.659136670643687
10,51419324.22868356
891,14995930.12490114
2,1, 7,21, 0, 3, 0.00,60.00,SummerDesignDay
1125,24.16673086919307
1165,24.48535077893409
1205,22.548843541449206
1245,22.285225118908046
1285,22.52043060164127
1325,24.259884066162397
1365,22.927220455027727
1405,23.312302392062663
1445,23.280924268497445
1485,23.998667168757224
1525,24.40841563837884
1565,23.236240182869268
1605,23.513224873096588
1645,23.999409510791268
1685,23.992941501200574
1725,24.03668776603052
1765,25.139085727023259
1805,25.110216692218818
1845,23.970649617601486
1885,25.114352030671016
2,1, 7,21, 0, 4, 0.00,10.00,SummerDesignDay
8,13.63560137410855
10,51373778.23294594
891,12000.0
2,1, 7,21, 0, 4,10.00,20.00,SummerDesignDay
8,13.612040802606578
10,51323803.472087938
891,14966587.529929053
2,1, 7,21, 0, 4,20.00,30.00,SummerDesignDay
8,13.58846620506876
10,51281299.23409256
891,5087897.867695451
2,1, 7,21, 0, 4,30.00,40.00,SummerDesignDay
8,13.56487178447336
10,51229756.4945665
891,9918442.549267102
2,1, 7,21, 0, 4,40.00,50.00,SummerDesignDay
8,13.541257354069103
10,51189551.27142917
891,12104808.602480665
2,1, 7,21, 0, 4,50.00,60.00,SummerDesignDay
8,13.517617463812285
10,51138027.93517779
891,2971319.695120422
2,1, 7,21, 0, 4, 0.00,60.00,SummerDesignDay
1125,24.06360016138382
1165,24.368695710747386
1205,22.355676342441737
1245,22.10137747722061
1285,22.32850848152806
1325,24.105540424133264
1365,22.75733232741273
1405,23.113634901993867
1445,23.085044426041806
1485,23.998666285322117
1525,24.083527139909888
1565,22.902293259355589
1605,23.228193036269834
1645,23.785604403397075
1685,23.76172387900132
1725,23.805969411522555
1765,24.980301127849839
1805,24.91829619313687
1845,23.74239771330546
1885,24.91831104604134
2,1, 7,21, 0, 5, 0.00,10.00,SummerDesignDay
8,13.50185415824011
10,51101559.523889329
891,15066433.56202033
2,1, 7,21, 0, 5,10.00,20.00,SummerDesignDay
8,13.486076034032447
10,51069409.34332733
891,12000.0
2,1, 7,21, 0, 5,20.00,30.00,SummerDesignDay
8,13.470289340350983
10,51040974.83550686
891,15040644.44353147
2,1, 7,21, 0, 5,30.00,40.00,SummerDesignDay
8,13.454493322631063
10,51007454.05134981
891,12000.0
2,1, 7,21, 0, 5,40.00,50.00,SummerDesignDay
8,13.438688835118548
10,50977360.45725898
891,15014124.003429084
2,1, 7,21, 0, 5,50.00,60.00,SummerDesignDay
8,13.422888173889437
10,50946915.19647769
891,12000.0
2,1, 7,21, 0, 5, 0.00,60.00,SummerDesignDay
1125,23.964263632904804
1165,24.258536672509395
1205,22.176206678228117
1245,21.93144180993566
1285,22.149776493210309
1325,24.018657214360684
1365,22.59890144015713
1405,23.026796044448465
1445,22.906978627791856
1485,23.99865936426932
1525,23.99780190900741
1565,22.651588513930724
1605,22.96997642729153
1645,23.638461406276848
1685,23.607495038730833
1725,23.807348459206655
1765,24.833652395914855
1805,24.74828372283125
1845,23.680677541564085
1885,24.830590690794169
2,1, 7,21, 0, 6, 0.00,10.00,SummerDesignDay
8,13.438688835118548
10,50934383.28882969
891,14985977.206385609
2,1, 7,21, 0, 6,10.00,20.00,SummerDesignDay
8,13.454493322631063
10,50925268.14983961
891,132803.9249244413
2,1, 7,21, 0, 6,20.00,30.00,SummerDesignDay
8,13.470289340350983
10,50909571.10274246
891,14836109.197226953
2,1, 7,21, 0, 6,30.00,40.00,SummerDesignDay
8,13.486076034032447
10,50902304.09781801
891,7652513.272677194
2,1, 7,21, 0, 6,40.00,50.00,SummerDesignDay
8,13.50185415824011
10,50885367.99869473
891,7380468.321770644
2,1, 7,21, 0, 6,50.00,60.00,SummerDesignDay
8,13.517617463812285
10,50879452.35035887
891,14420453.114616786
2,1, 7,21, 0, 6, 0.00,60.00,SummerDesignDay
1125,23.895056371309413
1165,24.17979132563539
1205,22.078701339828425
1245,21.833785377960088
1285,22.042167512553936
1325,24.042884999099618
1365,22.514240515417403
1405,23.35137036705446
1445,22.815423595789487
1485,23.99864527443752
1525,24.009017040080953
1565,22.681246606079396
1605,22.828203069092905
1645,23.795715598703145
1685,23.78438364534911
1725,24.599536026780397
1765,24.794592071015093
1805,24.724823792665636
1845,23.999192853918094
1885,25.169491514103439
2,1, 7,21, 0, 7, 0.00,10.00,SummerDesignDay
8,13.572736920571789
10,51376313.902143407
891,671022.6386865466
2,1, 7,21, 0, 7,10.00,20.00,SummerDesignDay
8,13.627748229152554
10,51390327.42927166
891,15057162.231416878
2,1, 7,21, 0, 7,20.00,30.00,SummerDesignDay
8,13.682651961920304
10,51396885.114878829
891,12000.0
2,1, 7,21, 0, 7,30.00,40.00,SummerDesignDay
8,13.737448093244995
10,51410280.44439622
891,15031545.232467706
2,1, 7,21, 0, 7,40.00,50.00,SummerDesignDay
8,13.792137011831216
10,51420108.75570228
891,12000.0
2,1, 7,21, 0, 7,50.00,60.00,SummerDesignDay
8,13.846719282840333
10,51432132.33396601
891,15004482.625457297
2,1, 7,21, 0, 7, 0.00,60.00,SummerDesignDay
1125,23.891588257914465
1165,24.172758949500066
1205,22.15940276069722
1245,21.890165628646057
1285,22.086714878508219
1325,24.015427926233543
1365,22.57537021303374
1405,23.839555334735726
1445,22.874528751323898
1485,23.99863145256914
1525,23.89421868690486
1565,23.065433834565977
1605,22.895927383355887
1645,24.271201831473463
1685,24.283753993220889
1725,25.66550397319867
1765,24.88644376115067
1805,24.860370119937725
1845,24.394317899311429
1885,25.686517216540449
2,1, 7,21, 0, 8, 0.00,10.00,SummerDesignDay
8,13.978831900527043
10,91159132.32945392
891,6233738.525144888
2,1, 7,21, 0, 8,10.00,20.00,SummerDesignDay
8,14.110321014287419
10,79247023.75158592
891,15618428.050447025
2,1, 7,21, 0, 8,20.00,30.00,SummerDesignDay
8,14.241191509616986
10,90584855.32924274
891,9108159.998511667
2,1, 7,21, 0, 8,30.00,40.00,SummerDesignDay
8,14.371447531304272
10,88958184.82753609
891,6130592.440560519
2,1, 7,21, 0, 8,40.00,50.00,SummerDesignDay
8,14.501093766564925
10,91817645.90703938
891,15253027.467094416
2,1, 7,21, 0, 8,50.00,60.00,SummerDesignDay
8,14.630134792273804
10,95299719.42358126
891,12000.0
2,1, 7,21, 0, 8, 0.00,60.00,SummerDesignDay
1125,23.99190793031555
1165,23.991934383465975
1205,22.49504901288573
1245,22.186492649197345
1285,22.368948653440517
1325,24.275933191419239
1365,22.858768919440896
1405,24.00007796626818
1445,23.162943189797614
1485,23.998859872770287
1525,23.852721241573439
1565,23.89751012356444
1605,23.572690981848294
1645,23.99361978087075
1685,23.82135494597779
1725,25.69246680041334
1765,24.415569456315727
1805,24.268605387768745
1845,24.061480165824834
1885,25.352700598821686
2,1, 7,21, 0, 9, 0.00,10.00,SummerDesignDay
8,14.773641492809972
10,224336056.19070379
891,18103563.05086926
2,1, 7,21, 0, 9,10.00,20.00,SummerDesignDay
8,14.91640948124148
10,229199700.53115649
891,18515751.8730997
2,1, 7,21, 0, 9,20.00,30.00,SummerDesignDay
8,15.05843890714102
10,232912469.52102898
891,18528869.265955215
2,1, 7,21, 0, 9,30.00,40.00,SummerDesignDay
8,15.199735893563798
10,238300224.07306258
891,10453366.92515339
2,1, 7,21, 0, 9,40.00,50.00,SummerDesignDay
8,15.340306256439395
10,242560229.1530606
891,9396983.381181753
2,1, 7,21, 0, 9,50.00,60.00,SummerDesignDay
8,15.48015101768072
10,247340495.65186993
891,17171746.91750346
2,1, 7,21, 0, 9, 0.00,60.00,SummerDesignDay
1125,23.99981576898597
1165,23.999841776877614
1205,23.552051902340709
1245,23.225166108493423
1285,23.389617514059866
1325,24.98244004397974
1365,23.735027417769659
1405,23.99973617413218
1445,23.901691200650878
1485,23.99869108020329
1525,23.87556859462975
1565,23.99941271770768
1605,23.998722230823615
1645,23.99981281297625
1685,23.63941133021623
1725,25.751301945937656
1765,24.02497858292052
1805,23.76858061463908
1845,24.053875209823784
1885,25.00260985074857
2,1, 7,21, 0,10, 0.00,10.00,SummerDesignDay
8,15.60467292907716
10,352291611.1548483
891,27199979.950249915
2,1, 7,21, 0,10,10.00,20.00,SummerDesignDay
8,15.72862731650033
10,359646131.5304128
891,28715364.381101394
2,1, 7,21, 0,10,20.00,30.00,SummerDesignDay
8,15.852017409284228
10,363035974.8974749
891,28722893.669010354
2,1, 7,21, 0,10,30.00,40.00,SummerDesignDay
8,15.974848118364367
10,367454643.3186933
891,28730686.997314708
2,1, 7,21, 0,10,40.00,50.00,SummerDesignDay
8,16.097123145563505
10,371455662.7378344
891,28738598.26332357
2,1, 7,21, 0,10,50.00,60.00,SummerDesignDay
8,16.218846351168599
10,375573279.336373
891,26849149.823320826
2,1, 7,21, 0,10, 0.00,60.00,SummerDesignDay
1125,23.99980018262822
1165,23.999056537697969
1205,23.999432052561759
1245,23.99669417906149
1285,23.998889681355338
1325,25.835253838913034
1365,23.999612696376997
1405,23.99951070413054
1445,23.999660565941438
1485,23.998554223824983
1525,23.999159838676474
1565,23.999129991445533
1605,23.999302094454796
1645,23.99954421150089
1685,23.51219905694282
1725,25.495940802144458
1765,23.76106101056315
1805,23.408053953563667
1845,24.03865234863304
1885,24.528914700460786
2,1, 7,21, 0,11, 0.00,10.00,SummerDesignDay
8,16.325793027093189
10,429379622.54609128
891,29576010.860411176
2,1, 7,21, 0,11,10.00,20.00,SummerDesignDay
8,16.432322158488288
10,434199306.38716998
891,29925596.54410727
2,1, 7,21, 0,11,20.00,30.00,SummerDesignDay
8,16.538424180249178
10,438116710.28471288
891,29901823.74870521
2,1, 7,21, 0,11,30.00,40.00,SummerDesignDay
8,16.644108396469087
10,442051431.1436681
891,42744602.297760058
2,1, 7,21, 0,11,40.00,50.00,SummerDesignDay
8,16.749376736593655
10,446131245.02432766
891,34500908.942972529
2,1, 7,21, 0,11,50.00,60.00,SummerDesignDay
8,16.854232613237156
10,450077461.3831564
891,29936303.408767895
2,1, 7,21, 0,11, 0.00,60.00,SummerDesignDay
1125,23.99988849775055
1165,23.998822889559525
1205,23.998986219163148
1245,23.99940238577972
1285,23.999383451304487
1325,26.54052750853968
1365,23.999356908468447
1405,23.999377419667469
1445,23.999368954669654
1485,23.99853826101211
1525,23.99931516901198
1565,23.999031405936383
1605,23.9992820563476
1645,23.99932462699842
1685,23.62882240385076
1725,24.933135414381725
1765,23.592655188746205
1805,23.32195424184614
1845,24.04327641682657
1885,23.99037568211871
2,1, 7,21, 0,12, 0.00,10.00,SummerDesignDay
8,16.92390823520069
10,456685546.9779992
891,27706938.976814599
2,1, 7,21, 0,12,10.00,20.00,SummerDesignDay
8,16.99340178950456
10,459391894.34320828
891,27412345.863363048
2,1, 7,21, 0,12,20.00,30.00,SummerDesignDay
8,17.06272006743463
10,462269075.86995437
891,29101132.343989064
2,1, 7,21, 0,12,30.00,40.00,SummerDesignDay
8,17.131853229172639
10,465032065.63625839
891,33138988.481060655
2,1, 7,21, 0,12,40.00,50.00,SummerDesignDay
8,17.200807172194087
10,467752225.1101368
891,33168085.022629575
2,1, 7,21, 0,12,50.00,60.00,SummerDesignDay
8,17.269582116758607
10,470417742.6376137
891,33201145.541682006
2,1, 7,21, 0,12, 0.00,60.00,SummerDesignDay
1125,23.99998540877182
1165,23.99864785127706
1205,23.998834830100319
1245,23.999377126405489
1285,23.999346618575957
1325,27.005619225101758
1365,23.999328240178035
1405,23.999363728543604
1445,23.999266953600296
1485,23.998540963497534
1525,23.998724581287758
1565,23.99891636948818
1605,23.999181686350359
1645,23.999268086610429
1685,23.85007114156109
1725,24.337577825622586
1765,23.47566128638985
1805,23.39377768213342
1845,24.0572697847161
1885,23.53548889372806
2,1, 7,21, 0,13, 0.00,10.00,SummerDesignDay
8,17.32447360221357
10,473968852.9636643
891,29910616.635138927
2,1, 7,21, 0,13,10.00,20.00,SummerDesignDay
8,17.379251291230806
10,476269147.65534159
891,29177604.50957013
2,1, 7,21, 0,13,20.00,30.00,SummerDesignDay
8,17.433921312061729
10,478465867.38687649
891,29158821.67794852
2,1, 7,21, 0,13,30.00,40.00,SummerDesignDay
8,17.488473222557489
10,480667630.3384563
891,29601550.59034675
2,1, 7,21, 0,13,40.00,50.00,SummerDesignDay
8,17.542913447755134
10,482795843.5081825
891,39404664.337037499
2,1, 7,21, 0,13,50.00,60.00,SummerDesignDay
8,17.59724609886134
10,484805949.7672803
891,36609635.288299228
2,1, 7,21, 0,13, 0.00,60.00,SummerDesignDay
1125,24.00003650285323
1165,23.998575996304255
1205,23.998670740170256
1245,23.999294947355229
1285,23.999279390779696
1325,27.328048381756977
1365,23.999271408903608
1405,23.999340699956389
1445,23.99924285583404
1485,23.998547343729979
1525,23.998253736267185
1565,23.999017472358476
1605,23.99925617028305
1645,23.99926544726055
1685,23.986396940223785
1725,24.07457920299684
1765,23.445780036202394
1805,23.511151655808346
1845,24.0745061001667
1885,23.345634477411424
2,1, 7,21, 0,14, 0.00,10.00,SummerDesignDay
8,17.6311450462694
10,485620710.4638895
891,30504795.86502229
2,1, 7,21, 0,14,10.00,20.00,SummerDesignDay
8,17.665000449016245
10,487169744.6334125
891,30616088.15534941
2,1, 7,21, 0,14,20.00,30.00,SummerDesignDay
8,17.698812743128934
10,488458925.2002439
891,39142683.23582951
2,1, 7,21, 0,14,30.00,40.00,SummerDesignDay
8,17.732582050940107
10,489767910.97168859
891,38785595.38227999
2,1, 7,21, 0,14,40.00,50.00,SummerDesignDay
8,17.766307345121004
10,491045025.83629128
891,30632269.364183766
2,1, 7,21, 0,14,50.00,60.00,SummerDesignDay
8,17.79999023167558
10,492846746.6255855
891,30605041.340782405
2,1, 7,21, 0,14, 0.00,60.00,SummerDesignDay
1125,24.00005183799323
1165,23.99850927577984
1205,23.99833765332758
1245,23.999190385386766
1285,23.999151411440378
1325,27.585012663800524
1365,23.99914391282928
1405,23.999383857294974
1445,23.99929220620164
1485,23.99852417526247
1525,23.998113278804046
1565,23.999084994678318
1605,23.99944435684949
1645,23.99928506437645
1685,23.98329034687269
1725,23.992811413876699
1765,23.50341814711525
1805,23.626344396706558
1845,24.096499524468489
1885,23.313721882933085
2,1, 7,21, 0,15, 0.00,10.00,SummerDesignDay
8,17.79999023167558
10,486898554.92351409
891,43744836.29666011
2,1, 7,21, 0,15,10.00,20.00,SummerDesignDay
8,17.79999023167558
10,487065370.36112186
891,33866404.27004104
2,1, 7,21, 0,15,20.00,30.00,SummerDesignDay
8,17.79999023167558
10,487168416.7487282
891,30287892.69007768
2,1, 7,21, 0,15,30.00,40.00,SummerDesignDay
8,17.79999023167558
10,487702748.27567276
891,30261781.109810525
2,1, 7,21, 0,15,40.00,50.00,SummerDesignDay
8,17.79999023167558
10,487785449.92745319
891,43579770.77719551
2,1, 7,21, 0,15,50.00,60.00,SummerDesignDay
8,17.79999023167558
10,487742090.9325737
891,34023842.29740169
2,1, 7,21, 0,15, 0.00,60.00,SummerDesignDay
1125,24.00003824984678
1165,23.998427115380055
1205,23.998401867885638
1245,23.99932957766252
1285,23.99927665198182
1325,27.759994665268935
1365,23.99926929984097
1405,23.999486779374498
1445,23.999431601522216
1485,23.99839287174558
1525,23.998336787920509
1565,23.998840162474566
1605,23.999146990143747
1645,23.999432357239546
1685,23.856596388349386
1725,23.973341848371548
1765,23.599825884302164
1805,23.701462027810107
1845,24.12572177328164
1885,23.38496813816774
2,1, 7,21, 0,16, 0.00,10.00,SummerDesignDay
8,17.759562446305357
10,489804541.875076
891,28564728.596033958
2,1, 7,21, 0,16,10.00,20.00,SummerDesignDay
8,17.71907809634183
10,488381076.9177792
891,28333236.239725736
2,1, 7,21, 0,16,20.00,30.00,SummerDesignDay
8,17.67853788661001
10,486922665.1513157
891,28317532.246974544
2,1, 7,21, 0,16,30.00,40.00,SummerDesignDay
8,17.63791796367351
10,485255198.2220924
891,32815287.806427275
2,1, 7,21, 0,16,40.00,50.00,SummerDesignDay
8,17.59724609886134
10,483374099.9006173
891,36022269.326720859
2,1, 7,21, 0,16,50.00,60.00,SummerDesignDay
8,17.55650676726033
10,481291539.6948645
891,35128073.89734416
2,1, 7,21, 0,16, 0.00,60.00,SummerDesignDay
1125,23.9999820617147
1165,23.998313075045819
1205,23.998327220186096
1245,23.999301543659788
1285,23.99924793175254
1325,27.811879457001984
1365,23.99924480820103
1405,23.999416188211
1445,23.999381359076187
1485,23.998337660069468
1525,23.998776775685788
1565,23.99858219534188
1605,23.998816084550446
1645,23.999438915482075
1685,23.58412860666179
1725,23.935040907589565
1765,23.870847879274078
1805,23.815357136377178
1845,24.1315957028348
1885,23.58947328842783
2,1, 7,21, 0,17, 0.00,10.00,SummerDesignDay
8,17.50209486331892
10,472872629.24800536
891,25976174.10753958
2,1, 7,21, 0,17,10.00,20.00,SummerDesignDay
8,17.447570789624618
10,470131669.3243585
891,25665527.23417057
2,1, 7,21, 0,17,20.00,30.00,SummerDesignDay
8,17.392929544208135
10,467583971.5741587
891,25657925.85831392
2,1, 7,21, 0,17,30.00,40.00,SummerDesignDay
8,17.33818013976614
10,465026664.7978985
891,25650523.291214844
2,1, 7,21, 0,17,40.00,50.00,SummerDesignDay
8,17.283317298559309
10,462477305.2954598
891,25643046.028487706
2,1, 7,21, 0,17,50.00,60.00,SummerDesignDay
8,17.22833552437677
10,459884137.8454659
891,25635480.296040097
2,1, 7,21, 0,17, 0.00,60.00,SummerDesignDay
1125,23.999906060895716
1165,23.998670157815778
1205,23.99825397479856
1245,23.999206967424784
1285,23.999139827390754
1325,27.747401887974964
1365,23.99913187275581
1405,23.999188138685044
1445,23.99919099192807
1485,23.998432098311715
1525,23.999081571493066
1565,23.99858839158384
1605,23.998705623652769
1645,23.99946835081082
1685,23.422491393875914
1725,23.928007886161045
1765,24.20335878007583
1805,24.04196697870552
1845,24.133973373862415
1885,23.90477074927871
2,1, 7,21, 0,18, 0.00,10.00,SummerDesignDay
8,17.159453019160176
10,447046335.48174336
891,18043248.835275856
2,1, 7,21, 0,18,10.00,20.00,SummerDesignDay
8,17.090391773337136
10,443640097.9085024
891,19364696.68400024
2,1, 7,21, 0,18,20.00,30.00,SummerDesignDay
8,17.021151077964786
10,440612600.1740476
891,21020907.683029146
2,1, 7,21, 0,18,30.00,40.00,SummerDesignDay
8,16.951729380464653
10,437509267.6573898
891,21027231.623803755
2,1, 7,21, 0,18,40.00,50.00,SummerDesignDay
8,16.882126503829249
10,434405639.514715
891,21034068.869483819
2,1, 7,21, 0,18,50.00,60.00,SummerDesignDay
8,16.812341807494034
10,431342288.7532025
891,21040928.90895426
2,1, 7,21, 0,18, 0.00,60.00,SummerDesignDay
1125,23.999871807606696
1165,23.999173608759155
1205,23.99822258950878
1245,23.999117244450344
1285,23.99901395873421
1325,27.56223931592049
1365,23.99899472963625
1405,23.999171174497275
1445,23.999176980800767
1485,23.998531899931949
1525,23.999173785771338
1565,23.998882212514176
1605,23.998699083285599
1645,23.999574454004429
1685,23.433509057509356
1725,23.936896067424177
1765,24.59007766052883
1805,24.398431455110424
1845,24.124789797583476
1885,24.294774262994087
2,1, 7,21, 0,19, 0.00,10.00,SummerDesignDay
8,16.707321072823203
10,280922803.44646468
891,20248955.762475309
2,1, 7,21, 0,19,10.00,20.00,SummerDesignDay
8,16.601881826644556
10,275125266.56239727
891,20174604.094010377
2,1, 7,21, 0,19,20.00,30.00,SummerDesignDay
8,16.496030555252849
10,270993029.70052108
891,16481939.31502633
2,1, 7,21, 0,19,30.00,40.00,SummerDesignDay
8,16.389760181474104
10,266881774.62384535
891,14895361.80231687
2,1, 7,21, 0,19,40.00,50.00,SummerDesignDay
8,16.283067654262039
10,262922676.9200083
891,14834208.207853642
2,1, 7,21, 0,19,50.00,60.00,SummerDesignDay
8,16.17595057957811
10,259061926.56566576
891,14769061.563796375
2,1, 7,21, 0,19, 0.00,60.00,SummerDesignDay
1125,23.99986180866223
1165,23.9993493126015
1205,23.999281809409099
1245,23.999608514715335
1285,23.99954224824852
1325,27.097885173523865
1365,23.99949373912315
1405,23.99959685022549
1445,23.999600177254878
1485,23.998646582742123
1525,23.998915569575229
1565,23.999429613657367
1605,23.999222091400385
1645,23.999842266668485
1685,23.689005170693507
1725,24.040641408789186
1765,24.807332520284047
1805,24.756998824911237
1845,24.17625519840459
1885,24.698410816336624
2,1, 7,21, 0,20, 0.00,10.00,SummerDesignDay
8,16.097123145563505
10,130348376.06926231
891,19835285.073049867
2,1, 7,21, 0,20,10.00,20.00,SummerDesignDay
8,16.018070242471564
10,129043047.40057647
891,21996680.810202619
2,1, 7,21, 0,20,20.00,30.00,SummerDesignDay
8,15.938779752340516
10,127368491.1682767
891,23209216.27990335
2,1, 7,21, 0,20,30.00,40.00,SummerDesignDay
8,15.85926152575189
10,127830484.95305953
891,20411065.748129827
2,1, 7,21, 0,20,40.00,50.00,SummerDesignDay
8,15.779503718563929
10,125598772.60133748
891,20444452.51130742
2,1, 7,21, 0,20,50.00,60.00,SummerDesignDay
8,15.699515709672767
10,124761969.06923469
891,20455511.497615436
2,1, 7,21, 0,20, 0.00,60.00,SummerDesignDay
1125,23.999923578095417
1165,23.999300487124136
1205,24.428510545442049
1245,24.272687968589528
1285,24.408416237968117
1325,26.57551193123861
1365,24.538160720124126
1405,24.87891955188279
1445,24.852352949045057
1485,23.999089234827907
1525,23.998829653192588
1565,23.999858002517699
1605,23.999744042309684
1645,25.016847245064665
1685,25.105220122466848
1725,25.222873029243176
1765,25.477094355577294
1805,25.721389104660305
1845,25.32583101994322
1885,25.73436154315026
2,1, 7,21, 0,21, 0.00,10.00,SummerDesignDay
8,15.63389147320404
10,122308664.98230936
891,23353262.018944339
2,1, 7,21, 0,21,10.00,20.00,SummerDesignDay
8,15.56810827419793
10,120496612.27822627
891,21500562.1293505
2,1, 7,21, 0,21,20.00,30.00,SummerDesignDay
8,15.502170882753524
10,119063811.63622448
891,21493460.45321313
2,1, 7,21, 0,21,30.00,40.00,SummerDesignDay
8,15.436068032613852
10,116903871.30400335
891,21485772.441648086
2,1, 7,21, 0,21,40.00,50.00,SummerDesignDay
8,15.369804371206009
10,115612905.57415624
891,21477955.570395639
2,1, 7,21, 0,21,50.00,60.00,SummerDesignDay
8,15.303384603594449
10,114216174.7780339
891,21470039.08847912
2,1, 7,21, 0,21, 0.00,60.00,SummerDesignDay
1125,23.999911050225636
1165,23.99911566522121
1205,24.39650939310572
1245,24.132267931921985
1285,24.36573286857212
1325,26.048546580706103
1365,24.591303260235077
1405,25.115783791577898
1445,25.071514468383638
1485,23.99885386802381
1525,23.99896024762539
1565,23.999918654878724
1605,23.999847618309219
1645,25.681649356105596
1685,25.820373728017914
1725,25.866876932218735
1765,26.0543873232903
1805,26.328813066103878
1845,25.95348068861551
1885,26.364153376654753
2,1, 7,21, 0,22, 0.00,10.00,SummerDesignDay
8,15.236797685071274
10,89808924.05019959
891,20206811.70335546
2,1, 7,21, 0,22,10.00,20.00,SummerDesignDay
8,15.170047891787942
10,89677035.59947348
891,20141891.692905729
2,1, 7,21, 0,22,20.00,30.00,SummerDesignDay
8,15.103134826860483
10,89179276.13011658
891,20143911.110787896
2,1, 7,21, 0,22,30.00,40.00,SummerDesignDay
8,15.036063385178485
10,88863650.82865055
891,20291507.54477029
2,1, 7,21, 0,22,40.00,50.00,SummerDesignDay
8,14.968821767219835
10,88635447.27955474