Program Version,EnergyPlus, Version 8.9.0-eba93e8e1b, YMD=2019.03.20 18:02
1,5,Environment Title[],Latitude[deg],Longitude[deg],Time Zone[],Elevation[m]
2,8,Day of Simulation[],Month[],Day of Month[],DST Indicator[1=yes 0=no],Hour[],StartMinute[],EndMinute[],DayType
3,5,Cumulative Day of Simulation[],Month[],Day of Month[],DST Indicator[1=yes 0=no],DayType  ! When Daily Report Variables Requested
4,2,Cumulative Days of Simulation[],Month[]  ! When Monthly Report Variables Requested
5,1,Cumulative Days of Simulation[] ! When Run Period Report Variables Requested
6,1,Calendar Year of Simulation[] ! When Annual Report Variables Requested
7,9,Environment,Site Outdoor Air Drybulb Temperature [C] !Monthly [Value,Min,Day,Hour,Minute,Max,Day,Hour,Minute]
8,1,Environment,Site Outdoor Air Wetbulb Temperature [C] !TimeStep
849,1,STAIRWAY-SCH-F-SPACE FUNCTION ZN,Zone Air Temperature [C] !Hourly
850,7,STAIRWAY-SCH-F-SPACE FUNCTION ZN,Zone Air Relative Humidity [%] !Daily [Value,Min,Hour,Minute,Max,Hour,Minute]
889,1,STAIRWAY-SCH-G-SPACE FUNCTION ZN,Zone Air Temperature [C] !Hourly
890,7,STAIRWAY-SCH-G-SPACE FUNCTION ZN,Zone Air Relative Humidity [%] !Daily [Value,Min,Hour,Minute,Max,Hour,Minute]
929,1,STAIRWAY-SCH-H-SPACE FUNCTION ZN,Zone Air Temperature [C] !Hourly
930,7,STAIRWAY-SCH-H-SPACE FUNCTION ZN,Zone Air Relative Humidity [%] !Daily [Value,Min,Hour,Minute,Max,Hour,Minute]
969,1,STAIRWAY-SCH-I-SPACE FUNCTION ZN,Zone Air Temperature [C] !Hourly
970,7,STAIRWAY-SCH-I-SPACE FUNCTION ZN,Zone Air Relative Humidity [%] !Daily [Value,Min,Hour,Minute,Max,Hour,Minute]
1009,1,STORAGE AREA - OCCSENS-SPACE FUNCTION ZN,Zone Air Temperature [C] !Hourly
1010,7,STORAGE AREA - OCCSENS-SPACE FUNCTION ZN,Zone Air Relative Humidity [%] !Daily [Value,Min,Hour,Minute,Max,Hour,Minute]
1049,1,STORAGE AREA - REFRIGERATED - OCCSENS-SPACE FUNCTION ZN,Zone Air Temperature [C] !Hourly
1050,7,STORAGE AREA - REFRIGERATED - OCCSENS-SPACE FUNCTION ZN,Zone Air Relative Humidity [%] !Daily [Value,Min,Hour,Minute,Max,Hour,Minute]
1089,1,STORAGE AREA - REFRIGERATED-SPACE FUNCTION ZN,Zone Air Temperature [C] !Hourly
1090,7,STORAGE AREA - REFRIGERATED-SPACE FUNCTION ZN,Zone Air Relative Humidity [%] !Daily [Value,Min,Hour,Minute,Max,Hour,Minute]
1129,1,STORAGE AREA-SPACE FUNCTION ZN,Zone Air Temperature [C] !Hourly
1130,7,STORAGE AREA-SPACE FUNCTION ZN,Zone Air Relative Humidity [%] !Daily [Value,Min,Hour,Minute,Max,Hour,Minute]
1169,1,TRANSP. BAGGAGE-SPACE FUNCTION ZN,Zone Air Temperature [C] !Hourly
1170,7,TRANSP. BAGGAGE-SPACE FUNCTION ZN,Zone Air Relative Humidity [%] !Daily [Value,Min,Hour,Minute,Max,Hour,Minute]
1209,1,TRANSP. CONCOURSE-SPACE FUNCTION ZN,Zone Air Temperature [C] !Hourly
1210,7,TRANSP. CONCOURSE-SPACE FUNCTION ZN,Zone Air Relative Humidity [%] !Daily [Value,Min,Hour,Minute,Max,Hour,Minute]
1249,1,TRANSP. COUNTER-SPACE FUNCTION ZN,Zone Air Temperature [C] !Hourly
1250,7,TRANSP. COUNTER-SPACE FUNCTION ZN,Zone Air Relative Humidity [%] !Daily [Value,Min,Hour,Minute,Max,Hour,Minute]
1289,1,TRANSP. SEATING-SPACE FUNCTION ZN,Zone Air Temperature [C] !Hourly
1290,7,TRANSP. SEATING-SPACE FUNCTION ZN,Zone Air Relative Humidity [%] !Daily [Value,Min,Hour,Minute,Max,Hour,Minute]
1329,1,WAREHOUSE - FINE - REFRIGERATED-SPACE FUNCTION ZN,Zone Air Temperature [C] !Hourly
1330,7,WAREHOUSE - FINE - REFRIGERATED-SPACE FUNCTION ZN,Zone Air Relative Humidity [%] !Daily [Value,Min,Hour,Minute,Max,Hour,Minute]
1369,1,WAREHOUSE - FINE-SPACE FUNCTION ZN,Zone Air Temperature [C] !Hourly
1370,7,WAREHOUSE - FINE-SPACE FUNCTION ZN,Zone Air Relative Humidity [%] !Daily [Value,Min,Hour,Minute,Max,Hour,Minute]
1409,1,WAREHOUSE - MED/BLK - REFRIGERATED-SPACE FUNCTION ZN,Zone Air Temperature [C] !Hourly
1410,7,WAREHOUSE - MED/BLK - REFRIGERATED-SPACE FUNCTION ZN,Zone Air Relative Humidity [%] !Daily [Value,Min,Hour,Minute,Max,Hour,Minute]
1449,1,WAREHOUSE - MED/BLK-SPACE FUNCTION ZN,Zone Air Temperature [C] !Hourly
1450,7,WAREHOUSE - MED/BLK-SPACE FUNCTION ZN,Zone Air Relative Humidity [%] !Daily [Value,Min,Hour,Minute,Max,Hour,Minute]
1489,1,WAREHOUSE - MED/BLK2 - REFRIGERATED-SPACE FUNCTION ZN,Zone Air Temperature [C] !Hourly
1490,7,WAREHOUSE - MED/BLK2 - REFRIGERATED-SPACE FUNCTION ZN,Zone Air Relative Humidity [%] !Daily [Value,Min,Hour,Minute,Max,Hour,Minute]
1529,1,WAREHOUSE - MED/BLK2-SPACE FUNCTION ZN,Zone Air Temperature [C] !Hourly
1530,7,WAREHOUSE - MED/BLK2-SPACE FUNCTION ZN,Zone Air Relative Humidity [%] !Daily [Value,Min,Hour,Minute,Max,Hour,Minute]
1569,1,WASHROOM-SCH-A-SPACE FUNCTION ZN,Zone Air Temperature [C] !Hourly
1570,7,WASHROOM-SCH-A-SPACE FUNCTION ZN,Zone Air Relative Humidity [%] !Daily [Value,Min,Hour,Minute,Max,Hour,Minute]
1609,1,WASHROOM-SCH-B-SPACE FUNCTION ZN,Zone Air Temperature [C] !Hourly
1610,7,WASHROOM-SCH-B-SPACE FUNCTION ZN,Zone Air Relative Humidity [%] !Daily [Value,Min,Hour,Minute,Max,Hour,Minute]
10,1,Electricity:Facility [J] !TimeStep
1760,1,DistrictCooling:Facility [J] !TimeStep
1723,1,DistrictHeating:Facility [J] !TimeStep
End of Data Dictionary
1,FORT MCMURRAY AP ANN CLG .4% CONDNS DB=>MWB,  56.65,-111.22,  -7.00, 369.10
2,1, 7,21, 0, 1, 0.00,10.00,SummerDesignDay
8,14.218136923962174
10,74275444.35016608
1723,0.0
1760,44965790.737115558
2,1, 7,21, 0, 1,10.00,20.00,SummerDesignDay
8,14.171982153293495
10,74275444.35016608
1723,0.0
1760,44000686.34028128
2,1, 7,21, 0, 1,20.00,30.00,SummerDesignDay
8,14.125744780286427
10,74275444.35016608
1723,0.0
1760,43259842.10057171
2,1, 7,21, 0, 1,30.00,40.00,SummerDesignDay
8,14.079436086331978
10,74275444.35016608
1723,2562567.6642733637
1760,42526818.94515194
2,1, 7,21, 0, 1,40.00,50.00,SummerDesignDay
8,14.033050387896898
10,74275444.35016608
1723,4070846.333273936
1760,41779348.68063066
2,1, 7,21, 0, 1,50.00,60.00,SummerDesignDay
8,13.986581233564835
10,74275444.35016608
1723,5393956.241079522
1760,41032941.219339329
2,1, 7,21, 0, 1, 0.00,60.00,SummerDesignDay
849,23.922315614969837
889,23.92874858033352
929,24.00000000000001
969,24.738866973018017
1009,23.4574062122298
1049,25.92129903338135
1089,24.87626192215986
1129,25.290523037478935
1169,24.00000000000001
1209,22.08353904401198
1249,24.00000000000003
1289,22.04019611840881
1329,25.653373359966
1369,24.24276336319441
1409,24.894400370755773
1449,24.268857966857764
1489,24.775981792338116
1529,25.00877077219884
1569,23.95631059368618
1609,24.00000000000001
2,1, 7,21, 0, 2, 0.00,10.00,SummerDesignDay
8,13.95555882260429
10,59680565.81841946
1723,0.0
1760,28448856.897749459
2,1, 7,21, 0, 2,10.00,20.00,SummerDesignDay
8,13.924507755336454
10,59680565.81841946
1723,0.0
1760,27980845.456706443
2,1, 7,21, 0, 2,20.00,30.00,SummerDesignDay
8,13.893416042989206
10,59680565.81841946
1723,0.0
1760,27509623.91236122
2,1, 7,21, 0, 2,30.00,40.00,SummerDesignDay
8,13.862289589689029
10,59680565.81841946
1723,0.0
1760,27038428.724107587
2,1, 7,21, 0, 2,40.00,50.00,SummerDesignDay
8,13.831134407608739
10,59680565.81841946
1723,0.0
1760,26568094.018289098
2,1, 7,21, 0, 2,50.00,60.00,SummerDesignDay
8,13.799938415548118
10,59680565.81841946
1723,0.0
1760,26098213.289416475
2,1, 7,21, 0, 2, 0.00,60.00,SummerDesignDay
849,23.584053269136026
889,23.484866874201093
929,24.0
969,24.91475870963839
1009,23.180776590055733
1049,25.712968287904933
1089,24.701050248392915
1129,25.087826289407166
1169,24.000000000000019
1209,21.660054272327235
1249,24.0
1289,21.631718602773306
1329,25.518402578538944
1369,24.12767429065151
1409,24.78697852934359
1449,24.15245947623403
1489,24.613221179816099
1529,24.873275473654478
1569,23.639928920574488
1609,24.727759836233316
2,1, 7,21, 0, 3, 0.00,10.00,SummerDesignDay
8,13.776521671948676
10,53410617.99669048
1723,0.0
1760,25715259.237309949
2,1, 7,21, 0, 3,10.00,20.00,SummerDesignDay
8,13.753085235778466
10,53410617.99669048
1723,0.0
1760,25332327.97310167
2,1, 7,21, 0, 3,20.00,30.00,SummerDesignDay
8,13.729636002354969
10,53410617.99669048
1723,0.0
1760,24949712.176952937
2,1, 7,21, 0, 3,30.00,40.00,SummerDesignDay
8,13.706147375533054
10,53410617.99669048
1723,0.0
1760,24567857.42811369
2,1, 7,21, 0, 3,40.00,50.00,SummerDesignDay
8,13.682651961920304
10,53410617.99669048
1723,0.0
1760,24186808.78939241
2,1, 7,21, 0, 3,50.00,60.00,SummerDesignDay
8,13.659136670643687
10,53410617.99669048
1723,0.0
1760,23806495.835021303
2,1, 7,21, 0, 3, 0.00,60.00,SummerDesignDay
849,23.201872688797925
889,23.02332116344455
929,24.00000000000001
969,24.677419774776117
1009,22.920923400614759
1049,25.51441870650738
1089,24.526450581612936
1129,24.88888801006442
1169,24.0
1209,21.295150209343569
1249,24.0
1289,21.289049578845206
1329,25.39332832360282
1369,24.02757787469686
1409,24.69069765520253
1449,24.046599173491854
1489,24.451224509346713
1529,24.746503334934905
1569,23.34587760787611
1609,24.82014343295656
2,1, 7,21, 0, 4, 0.00,10.00,SummerDesignDay
8,13.63560137410855
10,52578124.925688717
1723,0.0
1760,23426076.965367214
2,1, 7,21, 0, 4,10.00,20.00,SummerDesignDay
8,13.612040802606578
10,52578124.925688717
1723,0.0
1760,23031893.888942649
2,1, 7,21, 0, 4,20.00,30.00,SummerDesignDay
8,13.58846620506876
10,52578124.925688717
1723,0.0
1760,22607710.17852599
2,1, 7,21, 0, 4,30.00,40.00,SummerDesignDay
8,13.56487178447336
10,52578124.925688717
1723,0.0
1760,22185444.185363294
2,1, 7,21, 0, 4,40.00,50.00,SummerDesignDay
8,13.541257354069103
10,52578124.925688717
1723,0.0
1760,21763651.77892074
2,1, 7,21, 0, 4,50.00,60.00,SummerDesignDay
8,13.517617463812285
10,52578124.925688717
1723,0.0
1760,21342149.677008436
2,1, 7,21, 0, 4, 0.00,60.00,SummerDesignDay
849,22.822138514025715
889,22.746960749364605
929,24.000000000000005
969,24.537423815976159
1009,22.702852344582398
1049,25.341961834635897
1089,24.366464904244784
1129,24.711163348587936
1169,24.000000000000026
1209,21.008771791987106
1249,24.000000000000044
1289,21.041476147589404
1329,25.283025141363198
1369,23.946201122725495
1409,24.606372813370269
1449,23.958260811218254
1489,24.299625328000329
1529,24.633385742761808
1569,23.098243930116273
1609,24.591118663756875
2,1, 7,21, 0, 5, 0.00,10.00,SummerDesignDay
8,13.50185415824011
10,52578124.925688717
1723,0.0
1760,21013925.63104973
2,1, 7,21, 0, 5,10.00,20.00,SummerDesignDay
8,13.486076034032447
10,52578124.925688717
1723,0.0
1760,21073806.275790708
2,1, 7,21, 0, 5,20.00,30.00,SummerDesignDay
8,13.470289340350983
10,52578124.925688717
1723,0.0
1760,21056449.904071899
2,1, 7,21, 0, 5,30.00,40.00,SummerDesignDay
8,13.454493322631063
10,52578124.925688717
1723,0.0
1760,21005614.972743505
2,1, 7,21, 0, 5,40.00,50.00,SummerDesignDay
8,13.438688835118548
10,52578124.925688717
1723,0.0
1760,20984991.37317946
2,1, 7,21, 0, 5,50.00,60.00,SummerDesignDay
8,13.422888173889437
10,52578124.925688717
1723,0.0
1760,20991827.740076599
2,1, 7,21, 0, 5, 0.00,60.00,SummerDesignDay
849,22.78040316578972
889,22.72052531651553
929,24.00000000000001
969,24.405603188035689
1009,22.561366530327974
1049,25.187423872290379
1089,24.28059131731992
1129,24.54748787122342
1169,24.000000000000026
1209,20.835415470285115
1249,24.00000000000004
1289,20.82426365138683
1329,25.184770257572834
1369,23.86883916197967
1409,24.594855210062325
1449,23.87546218474003
1489,24.260634487320215
1529,24.531086769468787
1569,22.941975010080346
1609,24.49476188797936
2,1, 7,21, 0, 6, 0.00,10.00,SummerDesignDay
8,13.438688835118548
10,52578124.925688717
1723,0.0
1760,21420851.978132987
2,1, 7,21, 0, 6,10.00,20.00,SummerDesignDay
8,13.454493322631063
10,52578124.925688717
1723,0.0
1760,21796528.41329377
2,1, 7,21, 0, 6,20.00,30.00,SummerDesignDay
8,13.470289340350983
10,52578124.925688717
1723,0.0
1760,22190669.37451028
2,1, 7,21, 0, 6,30.00,40.00,SummerDesignDay
8,13.486076034032447
10,52578124.925688717
1723,0.0
1760,24640958.77772255
2,1, 7,21, 0, 6,40.00,50.00,SummerDesignDay
8,13.50185415824011
10,52578124.925688717
1723,0.0
1760,29615832.63765963
2,1, 7,21, 0, 6,50.00,60.00,SummerDesignDay
8,13.517617463812285
10,52578124.925688717
1723,0.0
1760,29634870.598204934
2,1, 7,21, 0, 6, 0.00,60.00,SummerDesignDay
849,23.784422757980037
889,23.17763950180581
929,24.000000000000005
969,24.30823527724189
1009,22.695405617574008
1049,25.09255618314113
1089,24.3113740095703
1129,24.44282575876471
1169,24.000000000000015
1209,21.04743932313806
1249,24.00000000000001
1289,20.76987542095634
1329,25.13602613366132
1369,23.816261682016003
1409,24.686725766262286
1449,23.817580141813904
1489,24.667253835269717
1529,24.479610116330816
1569,23.099576514468649
1609,24.438393621145278
2,1, 7,21, 0, 7, 0.00,10.00,SummerDesignDay
8,13.572736920571789
10,55075604.13869402
1723,0.0
1760,94255058.743644
2,1, 7,21, 0, 7,10.00,20.00,SummerDesignDay
8,13.627748229152554
10,55075604.13869402
1723,0.0
1760,48035839.034602608
2,1, 7,21, 0, 7,20.00,30.00,SummerDesignDay
8,13.682651961920304
10,55075604.13869402
1723,0.0
1760,83087456.23016849
2,1, 7,21, 0, 7,30.00,40.00,SummerDesignDay
8,13.737448093244995
10,55075604.13869402
1723,0.0
1760,59162817.44517408
2,1, 7,21, 0, 7,40.00,50.00,SummerDesignDay
8,13.792137011831216
10,55075604.13869402
1723,0.0
1760,64697012.507171999
2,1, 7,21, 0, 7,50.00,60.00,SummerDesignDay
8,13.846719282840333
10,55075604.13869402
1723,0.0
1760,68343891.06298657
2,1, 7,21, 0, 7, 0.00,60.00,SummerDesignDay
849,23.999999997525934
889,23.677617273773945
929,24.000000000000015
969,24.28673355781703
1009,23.118757051505793
1049,25.08463766511969
1089,24.275757735366939
1129,24.43292990960343
1169,24.000000000000015
1209,21.5362454612838
1249,24.00000000000001
1289,21.0220023514398
1329,23.94815351864105
1369,23.822620308129815
1409,23.96373618865147
1449,23.81862250624076
1489,23.96235464307639
1529,23.973172802057616
1569,23.555228471943889
1609,24.439644608130405
2,1, 7,21, 0, 8, 0.00,10.00,SummerDesignDay
8,13.978831900527043
10,78751969.59959558
1723,0.0
1760,121725822.33285399
2,1, 7,21, 0, 8,10.00,20.00,SummerDesignDay
8,14.110321014287419
10,78751969.59959558
1723,0.0
1760,95964318.03069075
2,1, 7,21, 0, 8,20.00,30.00,SummerDesignDay
8,14.241191509616986
10,78751969.59959558
1723,0.0
1760,112470833.69779094
2,1, 7,21, 0, 8,30.00,40.00,SummerDesignDay
8,14.371447531304272
10,78751969.59959558
1723,0.0
1760,137522099.49109278
2,1, 7,21, 0, 8,40.00,50.00,SummerDesignDay
8,14.501093766564925
10,78751969.59959558
1723,0.0
1760,143313036.08015446
2,1, 7,21, 0, 8,50.00,60.00,SummerDesignDay
8,14.630134792273804
10,78751969.59959558
1723,0.0
1760,149975927.91981615
2,1, 7,21, 0, 8, 0.00,60.00,SummerDesignDay
849,24.000000000000019
889,23.999999303604058
929,24.0
969,24.36196234493578
1009,23.84754975720882
1049,23.83925756317795
1089,23.95275453409484
1129,23.923812115798144
1169,24.00000000000001
1209,22.431512721747838
1249,24.000000000000019
1289,21.764962597083039
1329,23.99999999999991
1369,23.986620203189277
1409,24.0
1449,23.97433590376055
1489,23.999999999999859
1529,24.00000000000001
1569,23.997359049748807
1609,24.513674472594276
2,1, 7,21, 0, 9, 0.00,10.00,SummerDesignDay
8,14.773641492809972
10,133771136.72803411
1723,0.0
1760,208376911.4380584
2,1, 7,21, 0, 9,10.00,20.00,SummerDesignDay
8,14.91640948124148
10,133771136.72803411
1723,0.0
1760,204231326.35404346
2,1, 7,21, 0, 9,20.00,30.00,SummerDesignDay
8,15.05843890714102
10,133771136.72803411
1723,0.0
1760,214044957.6101734
2,1, 7,21, 0, 9,30.00,40.00,SummerDesignDay
8,15.199735893563798
10,133771136.72803411
1723,0.0
1760,232005242.67513905
2,1, 7,21, 0, 9,40.00,50.00,SummerDesignDay
8,15.340306256439395
10,133771136.72803411
1723,0.0
1760,241781752.00503258
2,1, 7,21, 0, 9,50.00,60.00,SummerDesignDay
8,15.48015101768072
10,133771136.72803411
1723,0.0
1760,253504335.90255807
2,1, 7,21, 0, 9, 0.00,60.00,SummerDesignDay
849,24.000000000000026
889,23.99999999999999
929,24.000000000000015
969,24.581781856155744
1009,23.99999999511149
1049,23.999999999407807
1089,23.999999999985748
1129,23.99999999996358
1169,24.000000000000019
1209,23.645980351104716
1249,24.000000000000019
1289,23.030543156324798
1329,23.999999999999998
1369,24.0
1409,24.00000000000001
1449,23.999999999996534
1489,24.000000000000033
1529,24.000000000000019
1569,24.000000000000019
1609,23.934721383528588
2,1, 7,21, 0,10, 0.00,10.00,SummerDesignDay
8,15.60467292907716
10,154218591.56651403
1723,0.0
1760,277090301.5714476
2,1, 7,21, 0,10,10.00,20.00,SummerDesignDay
8,15.72862731650033
10,154218591.56651403
1723,0.0
1760,293665752.54599836
2,1, 7,21, 0,10,20.00,30.00,SummerDesignDay
8,15.852017409284228
10,154218591.56651403
1723,0.0
1760,306956344.60052368
2,1, 7,21, 0,10,30.00,40.00,SummerDesignDay
8,15.974848118364367
10,154218591.56651403
1723,0.0
1760,320629284.6859824
2,1, 7,21, 0,10,40.00,50.00,SummerDesignDay
8,16.097123145563505
10,154218591.56651403
1723,0.0
1760,334135666.38833227
2,1, 7,21, 0,10,50.00,60.00,SummerDesignDay
8,16.218846351168599
10,154218591.56651403
1723,0.0
1760,347014838.41208508
2,1, 7,21, 0,10, 0.00,60.00,SummerDesignDay
849,23.99999999999999
889,23.999999999999984
929,24.000000000000044
969,24.92358481229151
1009,24.00000000000004
1049,24.000000000000026
1089,24.0
1129,24.000000000000019
1169,24.000000000000005
1209,23.999700829658634
1249,24.000000000000019
1289,23.975422473172104
1329,24.000000000000026
1369,23.999999999999998
1409,24.00000000000001
1449,24.00000000000001
1489,24.000000000000019
1529,24.00000000000001
1569,24.000000000000069
1609,23.999999997502358
2,1, 7,21, 0,11, 0.00,10.00,SummerDesignDay
8,16.325793027093189
10,164601505.15674744
1723,0.0
1760,364187179.2735445
2,1, 7,21, 0,11,10.00,20.00,SummerDesignDay
8,16.432322158488288
10,164601505.15674744
1723,0.0
1760,375878043.9073242
2,1, 7,21, 0,11,20.00,30.00,SummerDesignDay
8,16.538424180249178
10,164601505.15674744
1723,0.0
1760,386961726.9098294
2,1, 7,21, 0,11,30.00,40.00,SummerDesignDay
8,16.644108396469087
10,164601505.15674744
1723,0.0
1760,397877431.5183048
2,1, 7,21, 0,11,40.00,50.00,SummerDesignDay
8,16.749376736593655
10,164601505.15674744
1723,0.0
1760,408682749.3323356
2,1, 7,21, 0,11,50.00,60.00,SummerDesignDay
8,16.854232613237156
10,164601505.15674744
1723,0.0
1760,419425426.3631548
2,1, 7,21, 0,11, 0.00,60.00,SummerDesignDay
849,24.00000000000003
889,23.99999999999999
929,23.99999999999997
969,25.291661016197837
1009,24.00000000000003
1049,24.000000000000005
1089,24.000000000000026
1129,24.00000000000001
1169,24.000000000000026
1209,23.99999996705481
1249,24.0
1289,23.999996188950069
1329,24.00000000000001
1369,24.00000000000001
1409,24.00000000000001
1449,23.999999999999998
1489,23.99999999999999
1529,24.0
1569,24.00000000000001
1609,24.00000000000001
2,1, 7,21, 0,12, 0.00,10.00,SummerDesignDay
8,16.92390823520069
10,166903985.99661014
1723,0.0
1760,428954820.1088964
2,1, 7,21, 0,12,10.00,20.00,SummerDesignDay
8,16.99340178950456
10,166903985.99661014
1723,0.0
1760,436840751.5209455
2,1, 7,21, 0,12,20.00,30.00,SummerDesignDay
8,17.06272006743463
10,166903985.99661014
1723,0.0
1760,444754370.91767606
2,1, 7,21, 0,12,30.00,40.00,SummerDesignDay
8,17.131853229172639
10,166903985.99661014
1723,0.0
1760,452663279.1253245
2,1, 7,21, 0,12,40.00,50.00,SummerDesignDay
8,17.200807172194087
10,166903985.99661014
1723,0.0
1760,460562835.45582506
2,1, 7,21, 0,12,50.00,60.00,SummerDesignDay
8,17.269582116758607
10,166903985.99661014
1723,0.0
1760,468402178.5678945
2,1, 7,21, 0,12, 0.00,60.00,SummerDesignDay
849,24.000000000000033
889,24.000000000000015
929,23.999999999999984
969,25.692605722241497
1009,24.00000000000003
1049,24.000000000000026
1089,24.00000000000001
1129,24.000000000000019
1169,24.000000000000044
1209,23.999999999996335
1249,24.000000000000019
1289,23.99999999942692
1329,24.000000000000019
1369,24.00000000000001
1409,24.000000000000026
1449,24.00000000000001
1489,24.000000000000026
1529,24.000000000000026
1569,23.999999999999955
1609,24.000000000000005
2,1, 7,21, 0,13, 0.00,10.00,SummerDesignDay
8,17.32447360221357
10,166071492.92560838
1723,0.0
1760,472426487.2466349
2,1, 7,21, 0,13,10.00,20.00,SummerDesignDay
8,17.379251291230806
10,166071492.92560838
1723,0.0
1760,478324498.92483499
2,1, 7,21, 0,13,20.00,30.00,SummerDesignDay
8,17.433921312061729
10,166071492.92560838
1723,0.0
1760,483619858.6077909
2,1, 7,21, 0,13,30.00,40.00,SummerDesignDay
8,17.488473222557489
10,166071492.92560838
1723,0.0
1760,488891150.97672078
2,1, 7,21, 0,13,40.00,50.00,SummerDesignDay
8,17.542913447755134
10,166071492.92560838
1723,0.0
1760,494058586.40251359
2,1, 7,21, 0,13,50.00,60.00,SummerDesignDay
8,17.59724609886134
10,166071492.92560838
1723,0.0
1760,498990360.3809615
2,1, 7,21, 0,13, 0.00,60.00,SummerDesignDay
849,24.00000000000001
889,24.000000000000015
929,24.00000000000004
969,26.077136117196245
1009,24.000000000000019
1049,24.000000000000019
1089,24.00000000000003
1129,24.000000000000019
1169,24.00000000000003
1209,24.000000000000015
1249,23.99999999999999
1289,23.999999999999916
1329,24.000000000000019
1369,24.000000000000005
1409,24.000000000000019
1449,24.000000000000019
1489,24.00000000000001
1529,24.00000000000001
1569,24.000000000000047
1609,24.000000000000015
2,1, 7,21, 0,14, 0.00,10.00,SummerDesignDay
8,17.6311450462694
10,166071492.92560838
1723,0.0
1760,501664331.023947
2,1, 7,21, 0,14,10.00,20.00,SummerDesignDay
8,17.665000449016245
10,166071492.92560838
1723,0.0
1760,504493725.7669972
2,1, 7,21, 0,14,20.00,30.00,SummerDesignDay
8,17.698812743128934
10,166071492.92560838
1723,0.0
1760,507282585.1377759
2,1, 7,21, 0,14,30.00,40.00,SummerDesignDay
8,17.732582050940107
10,166071492.92560838
1723,0.0
1760,510074144.10639318
2,1, 7,21, 0,14,40.00,50.00,SummerDesignDay
8,17.766307345121004
10,166071492.92560838
1723,0.0
1760,512883038.5671121
2,1, 7,21, 0,14,50.00,60.00,SummerDesignDay
8,17.79999023167558
10,166071492.92560838
1723,0.0
1760,515709462.34309628
2,1, 7,21, 0,14, 0.00,60.00,SummerDesignDay
849,24.000000000000033
889,24.000000000000033
929,24.00000000000004
969,26.36861279571389
1009,24.000000000000047
1049,23.999999999999984
1089,24.00000000000001
1129,24.000000000000015
1169,24.000000000000026
1209,24.000000000000026
1249,24.000000000000026
1289,24.0
1329,24.00000000000001
1369,24.000000000000005
1409,24.0
1449,24.000000000000005
1489,24.000000000000026
1529,24.00000000000001
1569,24.000000000000026
1609,24.0
2,1, 7,21, 0,15, 0.00,10.00,SummerDesignDay
8,17.79999023167558
10,166071492.92560838
1723,0.0
1760,576757148.0015907
2,1, 7,21, 0,15,10.00,20.00,SummerDesignDay
8,17.79999023167558
10,166071492.92560838
1723,0.0
1760,528991877.7586324
2,1, 7,21, 0,15,20.00,30.00,SummerDesignDay
8,17.79999023167558
10,166071492.92560838
1723,0.0
1760,554577749.1966974
2,1, 7,21, 0,15,30.00,40.00,SummerDesignDay
8,17.79999023167558
10,166071492.92560838
1723,0.0
1760,529764688.56562426
2,1, 7,21, 0,15,40.00,50.00,SummerDesignDay
8,17.79999023167558
10,166071492.92560838
1723,0.0
1760,532102133.359942
2,1, 7,21, 0,15,50.00,60.00,SummerDesignDay
8,17.79999023167558
10,166071492.92560838
1723,0.0
1760,531883640.87101516
2,1, 7,21, 0,15, 0.00,60.00,SummerDesignDay
849,24.000000000000015
889,24.000000000000019
929,24.00000000000003
969,23.882500188300495
1009,23.999999999999959
1049,24.000000000000044
1089,24.000000000000019
1129,24.000000000000015
1169,24.000000000000005
1209,24.00000000000001
1249,24.00000000000001
1289,24.000000000000005
1329,24.000000000000019
1369,24.00000000000001
1409,24.0
1449,24.00000000000001
1489,24.00000000000001
1529,24.0
1569,24.00000000000003
1609,24.000000000000005
2,1, 7,21, 0,16, 0.00,10.00,SummerDesignDay
8,17.759562446305357
10,171066451.35161899
1723,0.0
1760,530642028.1902206
2,1, 7,21, 0,16,10.00,20.00,SummerDesignDay
8,17.71907809634183
10,171066451.35161899
1723,0.0
1760,527059595.61498448
2,1, 7,21, 0,16,20.00,30.00,SummerDesignDay
8,17.67853788661001
10,171066451.35161899
1723,0.0
1760,522927303.2599066
2,1, 7,21, 0,16,30.00,40.00,SummerDesignDay
8,17.63791796367351
10,171066451.35161899
1723,0.0
1760,518412708.4274513
2,1, 7,21, 0,16,40.00,50.00,SummerDesignDay
8,17.59724609886134
10,171066451.35161899
1723,0.0
1760,513583294.37956377
2,1, 7,21, 0,16,50.00,60.00,SummerDesignDay
8,17.55650676726033
10,171066451.35161899
1723,0.0
1760,508375483.0115545
2,1, 7,21, 0,16, 0.00,60.00,SummerDesignDay
849,24.000000000000015
889,24.00000000000003
929,24.000000000000044
969,24.000000000000019
1009,24.000000000000044
1049,24.000000000000005
1089,24.000000000000026
1129,24.000000000000044
1169,24.00000000000001
1209,23.999999999999984
1249,24.00000000000003
1289,24.000000000000005
1329,24.00000000000003
1369,24.00000000000001
1409,24.0
1449,24.000000000000005
1489,24.000000000000019
1529,24.000000000000019
1569,23.999999999999987
1609,24.000000000000005
2,1, 7,21, 0,17, 0.00,10.00,SummerDesignDay
8,17.50209486331892
10,171066451.35161899
1723,0.0
1760,501449571.6643005
2,1, 7,21, 0,17,10.00,20.00,SummerDesignDay
8,17.447570789624618
10,171066451.35161899
1723,0.0
1760,494537994.31826129
2,1, 7,21, 0,17,20.00,30.00,SummerDesignDay
8,17.392929544208135
10,171066451.35161899
1723,0.0
1760,487456916.1374547
2,1, 7,21, 0,17,30.00,40.00,SummerDesignDay
8,17.33818013976614
10,171066451.35161899
1723,0.0
1760,480227370.5473607
2,1, 7,21, 0,17,40.00,50.00,SummerDesignDay
8,17.283317298559309
10,171066451.35161899
1723,0.0
1760,472489308.6453442
2,1, 7,21, 0,17,50.00,60.00,SummerDesignDay
8,17.22833552437677
10,171066451.35161899
1723,0.0
1760,464565438.45594009
2,1, 7,21, 0,17, 0.00,60.00,SummerDesignDay
849,24.000000000000015
889,24.000000000000019
929,24.00000000000001
969,24.0
1009,24.00000000000001
1049,24.0
1089,24.000000000000026
1129,23.99999999999999
1169,24.00000000000001
1209,24.000000000000019
1249,24.00000000000003
1289,24.00000000000001
1329,24.000000000000015
1369,24.000000000000015
1409,23.99999999999999
1449,24.000000000000005
1489,24.000000000000026
1529,23.999999999999998
1569,23.999999999999998
1609,24.0
2,1, 7,21, 0,18, 0.00,10.00,SummerDesignDay
8,17.159453019160176
10,163590888.563496
1723,0.0
1760,450905064.82315477
2,1, 7,21, 0,18,10.00,20.00,SummerDesignDay
8,17.090391773337136
10,163590888.563496
1723,0.0
1760,441055852.9523473
2,1, 7,21, 0,18,20.00,30.00,SummerDesignDay
8,17.021151077964786
10,163590888.563496
1723,0.0
1760,431185643.17181256
2,1, 7,21, 0,18,30.00,40.00,SummerDesignDay
8,16.951729380464653
10,163590888.563496
1723,0.0
1760,421354678.85052409
2,1, 7,21, 0,18,40.00,50.00,SummerDesignDay
8,16.882126503829249
10,163590888.563496
1723,0.0
1760,411636312.16892287
2,1, 7,21, 0,18,50.00,60.00,SummerDesignDay
8,16.812341807494034
10,163590888.563496
1723,0.0
1760,401956803.3597013
2,1, 7,21, 0,18, 0.00,60.00,SummerDesignDay
849,23.99999999999999
889,24.000000000000019
929,24.000000000000019
969,24.000000000000005
1009,24.00000000000001
1049,23.99999999999996
1089,24.0
1129,24.000000000000026
1169,24.000000000000026
1209,24.000000000000005
1249,24.000000000000015
1289,24.00000000000001
1329,24.000000000000047
1369,24.00000000000001
1409,24.000000000000015
1449,24.00000000000001
1489,24.0
1529,24.000000000000019
1569,23.999999999999976
1609,24.0
2,1, 7,21, 0,19, 0.00,10.00,SummerDesignDay
8,16.707321072823203
10,123074350.7423709
1723,0.0
1760,366752766.46205607
2,1, 7,21, 0,19,10.00,20.00,SummerDesignDay
8,16.601881826644556
10,123074350.7423709
1723,0.0
1760,352192879.2883182
2,1, 7,21, 0,19,20.00,30.00,SummerDesignDay
8,16.496030555252849
10,123074350.7423709
1723,0.0
1760,339122797.2676908
2,1, 7,21, 0,19,30.00,40.00,SummerDesignDay
8,16.389760181474104
10,123074350.7423709
1723,0.0
1760,326258148.86099287
2,1, 7,21, 0,19,40.00,50.00,SummerDesignDay
8,16.283067654262039
10,123074350.7423709
1723,0.0
1760,313690943.61563929
2,1, 7,21, 0,19,50.00,60.00,SummerDesignDay
8,16.17595057957811
10,123074350.7423709
1723,0.0
1760,301342400.7540932
2,1, 7,21, 0,19, 0.00,60.00,SummerDesignDay
849,24.000000000000015
889,24.000000000000005
929,23.999999999999987
969,24.000000000000005
1009,24.000000000000026
1049,24.000000000000026
1089,24.000000000000015
1129,24.000000000000033
1169,24.000000000000015
1209,24.0
1249,24.000000000000047
1289,23.999999999999998
1329,24.000000000000019
1369,24.000000000000026
1409,24.000000000000005
1449,24.000000000000005
1489,24.000000000000015
1529,24.00000000000003
1569,23.999999999999998
1609,24.000000000000015
2,1, 7,21, 0,20, 0.00,10.00,SummerDesignDay
8,16.097123145563505
10,105721745.14041747
1723,0.0
1760,229330941.97917677
2,1, 7,21, 0,20,10.00,20.00,SummerDesignDay
8,16.018070242471564
10,105721745.14041747
1723,0.0
1760,221327771.76784975
2,1, 7,21, 0,20,20.00,30.00,SummerDesignDay
8,15.938779752340516
10,105721745.14041747
1723,0.0
1760,213018774.08674277
2,1, 7,21, 0,20,30.00,40.00,SummerDesignDay
8,15.85926152575189
10,105721745.14041747
1723,0.0
1760,204702822.74904324
2,1, 7,21, 0,20,40.00,50.00,SummerDesignDay
8,15.779503718563929
10,105721745.14041747
1723,0.0
1760,196252621.06671889
2,1, 7,21, 0,20,50.00,60.00,SummerDesignDay
8,15.699515709672767
10,105721745.14041747
1723,0.0
1760,187585804.14081035
2,1, 7,21, 0,20, 0.00,60.00,SummerDesignDay
849,24.0
889,24.000000000000019
929,24.00000000000001
969,24.0
1009,24.813636505485957
1049,26.299721449578404
1089,25.16676754854835
1129,25.490197201885427
1169,23.999999999999998
1209,23.99999999999999
1249,24.0
1289,24.000000000000015
1329,24.0
1369,24.000000000000005
1409,24.00000000000001
1449,24.000000000000005
1489,24.000000000000005
1529,24.000000000000005
1569,24.000000000000019
1609,24.000000000000005
2,1, 7,21, 0,21, 0.00,10.00,SummerDesignDay
8,15.63389147320404
10,107386731.28242101
1723,0.0
1760,180741604.81262554
2,1, 7,21, 0,21,10.00,20.00,SummerDesignDay
8,15.56810827419793
10,107386731.28242101
1723,0.0
1760,172719682.17288433
2,1, 7,21, 0,21,20.00,30.00,SummerDesignDay
8,15.502170882753524
10,107386731.28242101
1723,0.0
1760,164463547.68171973
2,1, 7,21, 0,21,30.00,40.00,SummerDesignDay
8,15.436068032613852
10,107386731.28242101
1723,0.0
1760,156229675.55088256
2,1, 7,21, 0,21,40.00,50.00,SummerDesignDay
8,15.369804371206009
10,107386731.28242101
1723,0.0
1760,149881480.39688245
2,1, 7,21, 0,21,50.00,60.00,SummerDesignDay
8,15.303384603594449
10,107386731.28242101
1723,0.0