Program Version,EnergyPlus, Version 8.9.0-eba93e8e1b, YMD=2019.03.19 18:34
1,5,Environment Title[],Latitude[deg],Longitude[deg],Time Zone[],Elevation[m]
2,8,Day of Simulation[],Month[],Day of Month[],DST Indicator[1=yes 0=no],Hour[],StartMinute[],EndMinute[],DayType
3,5,Cumulative Day of Simulation[],Month[],Day of Month[],DST Indicator[1=yes 0=no],DayType  ! When Daily Report Variables Requested
4,2,Cumulative Days of Simulation[],Month[]  ! When Monthly Report Variables Requested
5,1,Cumulative Days of Simulation[] ! When Run Period Report Variables Requested
6,1,Calendar Year of Simulation[] ! When Annual Report Variables Requested
7,9,Environment,Site Outdoor Air Drybulb Temperature [C] !Monthly [Value,Min,Day,Hour,Minute,Max,Day,Hour,Minute]
8,1,Environment,Site Outdoor Air Wetbulb Temperature [C] !TimeStep
706,1,CORR. < 2.4M WIDE-SCH-B-SPACE FUNCTION ZN,Zone Air Temperature [C] !Hourly
707,7,CORR. < 2.4M WIDE-SCH-B-SPACE FUNCTION ZN,Zone Air Relative Humidity [%] !Daily [Value,Min,Hour,Minute,Max,Hour,Minute]
746,1,CORR. < 2.4M WIDE-SCH-C-SPACE FUNCTION ZN,Zone Air Temperature [C] !Hourly
747,7,CORR. < 2.4M WIDE-SCH-C-SPACE FUNCTION ZN,Zone Air Relative Humidity [%] !Daily [Value,Min,Hour,Minute,Max,Hour,Minute]
786,1,CORR. < 2.4M WIDE-SCH-D-SPACE FUNCTION ZN,Zone Air Temperature [C] !Hourly
787,7,CORR. < 2.4M WIDE-SCH-D-SPACE FUNCTION ZN,Zone Air Relative Humidity [%] !Daily [Value,Min,Hour,Minute,Max,Hour,Minute]
826,1,CORR. < 2.4M WIDE-SCH-E-SPACE FUNCTION ZN,Zone Air Temperature [C] !Hourly
827,7,CORR. < 2.4M WIDE-SCH-E-SPACE FUNCTION ZN,Zone Air Relative Humidity [%] !Daily [Value,Min,Hour,Minute,Max,Hour,Minute]
866,1,CORR. < 2.4M WIDE-SCH-F-SPACE FUNCTION ZN,Zone Air Temperature [C] !Hourly
867,7,CORR. < 2.4M WIDE-SCH-F-SPACE FUNCTION ZN,Zone Air Relative Humidity [%] !Daily [Value,Min,Hour,Minute,Max,Hour,Minute]
906,1,CORR. < 2.4M WIDE-SCH-G-SPACE FUNCTION ZN,Zone Air Temperature [C] !Hourly
907,7,CORR. < 2.4M WIDE-SCH-G-SPACE FUNCTION ZN,Zone Air Relative Humidity [%] !Daily [Value,Min,Hour,Minute,Max,Hour,Minute]
946,1,CORR. < 2.4M WIDE-SCH-H-SPACE FUNCTION ZN,Zone Air Temperature [C] !Hourly
947,7,CORR. < 2.4M WIDE-SCH-H-SPACE FUNCTION ZN,Zone Air Relative Humidity [%] !Daily [Value,Min,Hour,Minute,Max,Hour,Minute]
986,1,CORR. < 2.4M WIDE-SCH-I-SPACE FUNCTION ZN,Zone Air Temperature [C] !Hourly
987,7,CORR. < 2.4M WIDE-SCH-I-SPACE FUNCTION ZN,Zone Air Relative Humidity [%] !Daily [Value,Min,Hour,Minute,Max,Hour,Minute]
1026,1,CORR. >= 2.4M WIDE-SCH-A-SPACE FUNCTION ZN,Zone Air Temperature [C] !Hourly
1027,7,CORR. >= 2.4M WIDE-SCH-A-SPACE FUNCTION ZN,Zone Air Relative Humidity [%] !Daily [Value,Min,Hour,Minute,Max,Hour,Minute]
1066,1,CORR. >= 2.4M WIDE-SCH-B-SPACE FUNCTION ZN,Zone Air Temperature [C] !Hourly
1067,7,CORR. >= 2.4M WIDE-SCH-B-SPACE FUNCTION ZN,Zone Air Relative Humidity [%] !Daily [Value,Min,Hour,Minute,Max,Hour,Minute]
1106,1,CORR. >= 2.4M WIDE-SCH-C-SPACE FUNCTION ZN,Zone Air Temperature [C] !Hourly
1107,7,CORR. >= 2.4M WIDE-SCH-C-SPACE FUNCTION ZN,Zone Air Relative Humidity [%] !Daily [Value,Min,Hour,Minute,Max,Hour,Minute]
1146,1,CORR. >= 2.4M WIDE-SCH-D-SPACE FUNCTION ZN,Zone Air Temperature [C] !Hourly
1147,7,CORR. >= 2.4M WIDE-SCH-D-SPACE FUNCTION ZN,Zone Air Relative Humidity [%] !Daily [Value,Min,Hour,Minute,Max,Hour,Minute]
1186,1,CORR. >= 2.4M WIDE-SCH-E-SPACE FUNCTION ZN,Zone Air Temperature [C] !Hourly
1187,7,CORR. >= 2.4M WIDE-SCH-E-SPACE FUNCTION ZN,Zone Air Relative Humidity [%] !Daily [Value,Min,Hour,Minute,Max,Hour,Minute]
1226,1,CORR. >= 2.4M WIDE-SCH-F-SPACE FUNCTION ZN,Zone Air Temperature [C] !Hourly
1227,7,CORR. >= 2.4M WIDE-SCH-F-SPACE FUNCTION ZN,Zone Air Relative Humidity [%] !Daily [Value,Min,Hour,Minute,Max,Hour,Minute]
1266,1,CORR. >= 2.4M WIDE-SCH-G-SPACE FUNCTION ZN,Zone Air Temperature [C] !Hourly
1267,7,CORR. >= 2.4M WIDE-SCH-G-SPACE FUNCTION ZN,Zone Air Relative Humidity [%] !Daily [Value,Min,Hour,Minute,Max,Hour,Minute]
1306,1,CORR. >= 2.4M WIDE-SCH-H-SPACE FUNCTION ZN,Zone Air Temperature [C] !Hourly
1307,7,CORR. >= 2.4M WIDE-SCH-H-SPACE FUNCTION ZN,Zone Air Relative Humidity [%] !Daily [Value,Min,Hour,Minute,Max,Hour,Minute]
1346,1,CORR. >= 2.4M WIDE-SCH-I-SPACE FUNCTION ZN,Zone Air Temperature [C] !Hourly
1347,7,CORR. >= 2.4M WIDE-SCH-I-SPACE FUNCTION ZN,Zone Air Relative Humidity [%] !Daily [Value,Min,Hour,Minute,Max,Hour,Minute]
1386,1,COURTHOUSE - CELL-SPACE FUNCTION ZN,Zone Air Temperature [C] !Hourly
1387,7,COURTHOUSE - CELL-SPACE FUNCTION ZN,Zone Air Relative Humidity [%] !Daily [Value,Min,Hour,Minute,Max,Hour,Minute]
1426,1,COURTHOUSE - CHAMBERS-SPACE FUNCTION ZN,Zone Air Temperature [C] !Hourly
1427,7,COURTHOUSE - CHAMBERS-SPACE FUNCTION ZN,Zone Air Relative Humidity [%] !Daily [Value,Min,Hour,Minute,Max,Hour,Minute]
1466,1,COURTHOUSE - COURTROOM-SPACE FUNCTION ZN,Zone Air Temperature [C] !Hourly
1467,7,COURTHOUSE - COURTROOM-SPACE FUNCTION ZN,Zone Air Relative Humidity [%] !Daily [Value,Min,Hour,Minute,Max,Hour,Minute]
10,1,Electricity:Facility [J] !TimeStep
1617,1,DistrictCooling:Facility [J] !TimeStep
1580,1,DistrictHeating:Facility [J] !TimeStep
End of Data Dictionary
1,FORT MCMURRAY AP ANN CLG .4% CONDNS DB=>MWB,  56.65,-111.22,  -7.00, 369.10
2,1, 7,21, 0, 1, 0.00,10.00,SummerDesignDay
8,14.218136923962174
10,78921843.1401706
1580,0.0
1617,68823035.06758297
2,1, 7,21, 0, 1,10.00,20.00,SummerDesignDay
8,14.171982153293495
10,78921843.1401706
1580,0.0
1617,67091806.00072862
2,1, 7,21, 0, 1,20.00,30.00,SummerDesignDay
8,14.125744780286427
10,78921843.1401706
1580,0.0
1617,65645745.569201547
2,1, 7,21, 0, 1,30.00,40.00,SummerDesignDay
8,14.079436086331978
10,78921843.1401706
1580,0.0
1617,64204768.69772101
2,1, 7,21, 0, 1,40.00,50.00,SummerDesignDay
8,14.033050387896898
10,78921843.1401706
1580,0.0
1617,62783389.07221916
2,1, 7,21, 0, 1,50.00,60.00,SummerDesignDay
8,13.986581233564835
10,78921843.1401706
1580,0.0
1617,61385136.49358773
2,1, 7,21, 0, 1, 0.00,60.00,SummerDesignDay
706,24.00000000000001
746,24.927613467980707
786,24.43264110727985
826,25.583702484047565
866,24.000000000000015
906,24.000000000000005
946,24.000000000000005
986,24.3955693396308
1026,23.469592940174068
1066,24.000000000000015
1106,23.820690652655917
1146,24.725529266342975
1186,24.103303268892558
1226,24.00000000000001
1266,24.00000000000001
1306,24.000000000000005
1346,25.24758426204603
1386,24.00000000000004
1426,24.758901234379026
1466,22.867899587810127
2,1, 7,21, 0, 2, 0.00,10.00,SummerDesignDay
8,13.95555882260429
10,55598912.25686747
1580,0.0
1617,46547748.546438489
2,1, 7,21, 0, 2,10.00,20.00,SummerDesignDay
8,13.924507755336454
10,55598912.25686747
1580,0.0
1617,45338607.137089017
2,1, 7,21, 0, 2,20.00,30.00,SummerDesignDay
8,13.893416042989206
10,55598912.25686747
1580,0.0
1617,44307895.57855791
2,1, 7,21, 0, 2,30.00,40.00,SummerDesignDay
8,13.862289589689029
10,55598912.25686747
1580,0.0
1617,43198483.121036458
2,1, 7,21, 0, 2,40.00,50.00,SummerDesignDay
8,13.831134407608739
10,55598912.25686747
1580,0.0
1617,42102714.23895927
2,1, 7,21, 0, 2,50.00,60.00,SummerDesignDay
8,13.799938415548118
10,55598912.25686747
1580,0.0
1617,41015371.79227813
2,1, 7,21, 0, 2, 0.00,60.00,SummerDesignDay
706,24.09627311461003
746,24.785511138923167
786,24.177179447860995
826,25.36836889146907
866,23.999999999999998
906,24.000000000000005
946,24.000000000000005
986,23.974401474650184
1026,23.157471049784364
1066,24.37047842574079
1106,23.702739932074896
1146,24.6029640916156
1186,23.976458601555874
1226,24.00000000000001
1266,24.000000000000005
1306,24.00000000000001
1346,25.42787740692221
1386,24.0
1426,24.601510414478758
1466,22.532110711983095
2,1, 7,21, 0, 3, 0.00,10.00,SummerDesignDay
8,13.776521671948676
10,47363980.796067047
1580,0.0
1617,40055581.991534087
2,1, 7,21, 0, 3,10.00,20.00,SummerDesignDay
8,13.753085235778466
10,47363980.796067047
1580,0.0
1617,39084378.07516585
2,1, 7,21, 0, 3,20.00,30.00,SummerDesignDay
8,13.729636002354969
10,47363980.796067047
1580,0.0
1617,38033195.043043177
2,1, 7,21, 0, 3,30.00,40.00,SummerDesignDay
8,13.706147375533054
10,47363980.796067047
1580,0.0
1617,36985255.66598326
2,1, 7,21, 0, 3,40.00,50.00,SummerDesignDay
8,13.682651961920304
10,47363980.796067047
1580,0.0
1617,36025025.344767849
2,1, 7,21, 0, 3,50.00,60.00,SummerDesignDay
8,13.659136670643687
10,47363980.796067047
1580,0.0
1617,35079991.34292004
2,1, 7,21, 0, 3, 0.00,60.00,SummerDesignDay
706,23.593076731964858
746,24.663749118117754
786,23.917971143668109
826,25.18350023762497
866,24.00000000000001
906,24.0
946,24.000000000000005
986,23.43823153668841
1026,22.882721570682525
1066,24.243462578032568
1106,23.61049363058122
1146,24.48212347304532
1186,23.876031478748375
1226,24.00000000000001
1266,23.99762474956673
1306,24.000000000000015
1346,25.236140657069258
1386,24.000000000000055
1426,24.47504535487086
1466,22.273215858593834
2,1, 7,21, 0, 4, 0.00,10.00,SummerDesignDay
8,13.63560137410855
10,45353997.525202069
1580,0.0
1617,33221656.811543384
2,1, 7,21, 0, 4,10.00,20.00,SummerDesignDay
8,13.612040802606578
10,45353997.525202069
1580,0.0
1617,32219160.55748374
2,1, 7,21, 0, 4,20.00,30.00,SummerDesignDay
8,13.58846620506876
10,45353997.525202069
1580,0.0
1617,31268096.783232668
2,1, 7,21, 0, 4,30.00,40.00,SummerDesignDay
8,13.56487178447336
10,45353997.525202069
1580,0.0
1617,30325168.31595652
2,1, 7,21, 0, 4,40.00,50.00,SummerDesignDay
8,13.541257354069103
10,45353997.525202069
1580,0.0
1617,29389532.40258017
2,1, 7,21, 0, 4,50.00,60.00,SummerDesignDay
8,13.517617463812285
10,45353997.525202069
1580,0.0
1617,28459689.889984214
2,1, 7,21, 0, 4, 0.00,60.00,SummerDesignDay
706,23.12049149898211
746,24.542185413128626
786,23.669749233139809
826,25.0098443652807
866,24.000000000000005
906,24.000000000000015
946,24.000000000000019
986,23.11099869079563
1026,22.626310356560606
1066,24.030638605902856
1106,23.528838703942907
1146,24.3677918007792
1186,23.784572420316726
1226,24.0
1266,23.93695051525479
1306,24.0
1346,25.119992093970497
1386,23.99999999999999
1426,24.356132672857617
1466,22.0416737908406
2,1, 7,21, 0, 5, 0.00,10.00,SummerDesignDay
8,13.50185415824011
10,45353997.525202069
1580,0.0
1617,27659929.188434967
2,1, 7,21, 0, 5,10.00,20.00,SummerDesignDay
8,13.486076034032447
10,45353997.525202069
1580,0.0
1617,28020299.483682649
2,1, 7,21, 0, 5,20.00,30.00,SummerDesignDay
8,13.470289340350983
10,45353997.525202069
1580,0.0
1617,28285884.090519154
2,1, 7,21, 0, 5,30.00,40.00,SummerDesignDay
8,13.454493322631063
10,45353997.525202069
1580,0.0
1617,28604292.487508127
2,1, 7,21, 0, 5,40.00,50.00,SummerDesignDay
8,13.438688835118548
10,45353997.525202069
1580,0.0
1617,28990487.89626795
2,1, 7,21, 0, 5,50.00,60.00,SummerDesignDay
8,13.422888173889437
10,45353997.525202069
1580,0.0
1617,29352816.211282985
2,1, 7,21, 0, 5, 0.00,60.00,SummerDesignDay
706,22.928685316023026
746,24.417115129961208
786,23.513685693229595
826,24.85002958168167
866,24.0
906,24.000000000000005
946,24.00000000000001
986,23.136333092398954
1026,22.59691463906972
1066,23.929216742776224
1106,23.453091999021159
1146,24.368751206306816
1186,23.698300541246366
1226,24.000000000000005
1266,23.83256154674696
1306,24.00000000000001
1346,25.020902048136347
1386,24.000000000000033
1426,24.30810122835811
1466,21.83698682290003
2,1, 7,21, 0, 6, 0.00,10.00,SummerDesignDay
8,13.438688835118548
10,45353997.525202069
1580,0.0
1617,30186240.421370936
2,1, 7,21, 0, 6,10.00,20.00,SummerDesignDay
8,13.454493322631063
10,45353997.525202069
1580,0.0
1617,30977474.245263414
2,1, 7,21, 0, 6,20.00,30.00,SummerDesignDay
8,13.470289340350983
10,45353997.525202069
1580,0.0
1617,31748601.866598526
2,1, 7,21, 0, 6,30.00,40.00,SummerDesignDay
8,13.486076034032447
10,45353997.525202069
1580,0.0
1617,32524065.812980206
2,1, 7,21, 0, 6,40.00,50.00,SummerDesignDay
8,13.50185415824011
10,45353997.525202069
1580,0.0
1617,33271578.48805317
2,1, 7,21, 0, 6,50.00,60.00,SummerDesignDay
8,13.517617463812285
10,45353997.525202069
1580,0.0
1617,34002623.7863189
2,1, 7,21, 0, 6, 0.00,60.00,SummerDesignDay
706,23.04835902086757
746,24.324377824264258
786,23.669883991301885
826,24.747184488130335
866,24.000000000000005
906,24.00000000000001
946,24.000000000000015
986,24.349530288837298
1026,23.054727864270367
1066,23.86871060989778
1106,23.4037067775072
1146,24.815997408797828
1186,23.649189531643459
1226,24.00000000000001
1266,23.7471989415741
1306,24.000000000000015
1346,24.972762762538875
1386,24.0
1426,24.36720301942009
1466,21.75281384887049
2,1, 7,21, 0, 7, 0.00,10.00,SummerDesignDay
8,13.572736920571789
10,50851451.76983712
1580,0.0
1617,44926710.68304712
2,1, 7,21, 0, 7,10.00,20.00,SummerDesignDay
8,13.627748229152554
10,50851451.76983712
1580,0.0
1617,38895374.44303965
2,1, 7,21, 0, 7,20.00,30.00,SummerDesignDay
8,13.682651961920304
10,50851451.76983712
1580,0.0
1617,41745895.282464738
2,1, 7,21, 0, 7,30.00,40.00,SummerDesignDay
8,13.737448093244995
10,50851451.76983712
1580,0.0
1617,44506651.07795818
2,1, 7,21, 0, 7,40.00,50.00,SummerDesignDay
8,13.792137011831216
10,50851451.76983712
1580,0.0
1617,46126959.573368158
2,1, 7,21, 0, 7,50.00,60.00,SummerDesignDay
8,13.846719282840333
10,50851451.76983712
1580,0.0
1617,47943850.79983881
2,1, 7,21, 0, 7, 0.00,60.00,SummerDesignDay
706,23.463318808128297
746,24.30620943080083
786,24.10888880493501
826,24.730766538720564
866,24.000000000000005
906,24.0
946,24.000000000000005
986,25.83797808791652
1026,23.426185933663239
1066,23.874553903798956
1106,23.413607167487588
1146,25.324591275079546
1186,23.68677885860492
1226,24.0
1266,23.833063538015897
1306,24.000000000000005
1346,24.990404150724904
1386,24.000000000000005
1426,23.95835882244774
1466,21.87453445640916
2,1, 7,21, 0, 8, 0.00,10.00,SummerDesignDay
8,13.978831900527043
10,71971275.99343086
1580,0.0
1617,119223270.73542708
2,1, 7,21, 0, 8,10.00,20.00,SummerDesignDay
8,14.110321014287419
10,71971275.99343086
1580,0.0
1617,80762332.31281577
2,1, 7,21, 0, 8,20.00,30.00,SummerDesignDay
8,14.241191509616986
10,71971275.99343086
1580,0.0
1617,102561661.77562049
2,1, 7,21, 0, 8,30.00,40.00,SummerDesignDay
8,14.371447531304272
10,71971275.99343086
1580,0.0
1617,104985385.37284309
2,1, 7,21, 0, 8,40.00,50.00,SummerDesignDay
8,14.501093766564925
10,71971275.99343086
1580,0.0
1617,111187421.22405724
2,1, 7,21, 0, 8,50.00,60.00,SummerDesignDay
8,14.630134792273804
10,71971275.99343086
1580,0.0
1617,117360262.72147532
2,1, 7,21, 0, 8, 0.00,60.00,SummerDesignDay
706,24.430874723264464
746,23.97979087684851
786,23.988165491066579
826,23.959409699086679
866,24.0
906,24.00000000000001
946,24.00000000000001
986,27.69679118600502
1026,23.96945432700322
1066,23.966087943411954
1106,23.517626653298057
1146,23.936907855152766
1186,23.8464143451582
1226,24.000000000000005
1266,23.99033653041687
1306,24.000000000000005
1346,25.107651998128988
1386,24.000000000000005
1426,23.999999999995756
1466,22.71849766653489
2,1, 7,21, 0, 9, 0.00,10.00,SummerDesignDay
8,14.773641492809972
10,122018359.46037121
1580,0.0
1617,177891794.03282774
2,1, 7,21, 0, 9,10.00,20.00,SummerDesignDay
8,14.91640948124148
10,122018359.46037121
1580,0.0
1617,175926284.5117987
2,1, 7,21, 0, 9,20.00,30.00,SummerDesignDay
8,15.05843890714102
10,122018359.46037121
1580,0.0
1617,191817682.14646627
2,1, 7,21, 0, 9,30.00,40.00,SummerDesignDay
8,15.199735893563798
10,122018359.46037121
1580,0.0
1617,204546646.3251638
2,1, 7,21, 0, 9,40.00,50.00,SummerDesignDay
8,15.340306256439395
10,122018359.46037121
1580,0.0
1617,214602913.27977453
2,1, 7,21, 0, 9,50.00,60.00,SummerDesignDay
8,15.48015101768072
10,122018359.46037121
1580,0.0
1617,225066306.83046855
2,1, 7,21, 0, 9, 0.00,60.00,SummerDesignDay
706,23.972876245502037
746,24.00000000000001
786,23.999999999999987
826,24.0
866,24.00000000000001
906,24.000000000000005
946,24.0
986,29.668956702814076
1026,23.999999999999657
1066,23.999136486910147
1106,23.90502246028376
1146,23.999999999999706
1186,23.999367497760717
1226,24.0
1266,23.999999999999998
1306,24.000000000000005
1346,25.350114585783559
1386,24.000000000000026
1426,24.00000000000001
1466,23.958290658320196
2,1, 7,21, 0,10, 0.00,10.00,SummerDesignDay
8,15.60467292907716
10,149940627.06525798
1580,0.0
1617,253962655.95254628
2,1, 7,21, 0,10,10.00,20.00,SummerDesignDay
8,15.72862731650033
10,149940627.06525798
1580,0.0
1617,264979786.94745378
2,1, 7,21, 0,10,20.00,30.00,SummerDesignDay
8,15.852017409284228
10,149940627.06525798
1580,0.0
1617,274310313.26109436
2,1, 7,21, 0,10,30.00,40.00,SummerDesignDay
8,15.974848118364367
10,149940627.06525798
1580,0.0
1617,283513159.73078498
2,1, 7,21, 0,10,40.00,50.00,SummerDesignDay
8,16.097123145563505
10,149940627.06525798
1580,0.0
1617,292486875.888731
2,1, 7,21, 0,10,50.00,60.00,SummerDesignDay
8,16.218846351168599
10,149940627.06525798
1580,0.0
1617,301213838.0956822
2,1, 7,21, 0,10, 0.00,60.00,SummerDesignDay
706,23.999999999999849
746,24.000000000000005
786,24.000000000000044
826,24.00000000000001
866,24.00000000000001
906,24.000000000000005
946,24.000000000000026
986,31.454325748991879
1026,24.000000000000015
1066,24.000000000000005
1106,23.999999999998825
1146,24.000000000000019
1186,24.000000000000005
1226,24.00000000000001
1266,24.0
1306,24.000000000000026
1346,25.6783253664769
1386,24.000000000000026
1426,24.00000000000001
1466,23.99999999986019
2,1, 7,21, 0,11, 0.00,10.00,SummerDesignDay
8,16.325793027093189
10,157545563.76942826
1580,0.0
1617,313450435.56857469
2,1, 7,21, 0,11,10.00,20.00,SummerDesignDay
8,16.432322158488288
10,157545563.76942826
1580,0.0
1617,321662773.98222246
2,1, 7,21, 0,11,20.00,30.00,SummerDesignDay
8,16.538424180249178
10,157545563.76942826
1580,0.0
1617,329364481.778438
2,1, 7,21, 0,11,30.00,40.00,SummerDesignDay
8,16.644108396469087
10,157545563.76942826
1580,0.0
1617,336949789.79492917
2,1, 7,21, 0,11,40.00,50.00,SummerDesignDay
8,16.749376736593655
10,157545563.76942826
1580,0.0
1617,344412044.3861608
2,1, 7,21, 0,11,50.00,60.00,SummerDesignDay
8,16.854232613237156
10,157545563.76942826
1580,0.0
1617,351744785.16889706
2,1, 7,21, 0,11, 0.00,60.00,SummerDesignDay
706,24.000000000000058
746,24.0
786,24.00000000000004
826,24.000000000000026
866,23.999999999999998
906,24.000000000000015
946,24.0
986,32.300159044588877
1026,24.00000000000003
1066,24.00000000000001
1106,24.000000000000005
1146,24.00000000000001
1186,24.00000000000001
1226,24.000000000000005
1266,24.0
1306,24.0
1346,25.997167231799414
1386,24.0
1426,23.99999999999999
1466,24.00000000000004
2,1, 7,21, 0,12, 0.00,10.00,SummerDesignDay
8,16.92390823520069
10,159653046.22896347
1580,0.0
1617,359373944.48385539
2,1, 7,21, 0,12,10.00,20.00,SummerDesignDay
8,16.99340178950456
10,159653046.22896347
1580,0.0
1617,365254285.9001943
2,1, 7,21, 0,12,20.00,30.00,SummerDesignDay
8,17.06272006743463
10,159653046.22896347
1580,0.0
1617,370846821.75233647
2,1, 7,21, 0,12,30.00,40.00,SummerDesignDay
8,17.131853229172639
10,159653046.22896347
1580,0.0
1617,376330856.79233506
2,1, 7,21, 0,12,40.00,50.00,SummerDesignDay
8,17.200807172194087
10,159653046.22896347
1580,0.0
1617,381759925.2324686
2,1, 7,21, 0,12,50.00,60.00,SummerDesignDay
8,17.269582116758607
10,159653046.22896347
1580,0.0
1617,387095780.8411028
2,1, 7,21, 0,12, 0.00,60.00,SummerDesignDay
706,24.000000000000033
746,24.000000000000015
786,24.000000000000005
826,24.00000000000001
866,24.000000000000019
906,23.999999999999998
946,24.000000000000015
986,32.51157213943345
1026,24.000000000000033
1066,24.0
1106,24.00000000000001
1146,24.00000000000003
1186,24.00000000000001
1226,24.00000000000001
1266,24.0
1306,24.0
1346,26.310887903279736
1386,24.0
1426,24.000000000000019
1466,24.00000000000009
2,1, 7,21, 0,13, 0.00,10.00,SummerDesignDay
8,17.32447360221357
10,157643062.9580985
1580,0.0
1617,385134122.28536096
2,1, 7,21, 0,13,10.00,20.00,SummerDesignDay
8,17.379251291230806
10,157643062.9580985
1580,0.0
1617,389086346.93796917
2,1, 7,21, 0,13,20.00,30.00,SummerDesignDay
8,17.433921312061729
10,157643062.9580985
1580,0.0
1617,392901172.5512593
2,1, 7,21, 0,13,30.00,40.00,SummerDesignDay
8,17.488473222557489
10,157643062.9580985
1580,0.0
1617,396607114.1649734
2,1, 7,21, 0,13,40.00,50.00,SummerDesignDay
8,17.542913447755134
10,157643062.9580985
1580,0.0
1617,400152608.8080236
2,1, 7,21, 0,13,50.00,60.00,SummerDesignDay
8,17.59724609886134
10,157643062.9580985
1580,0.0
1617,403484210.1343243
2,1, 7,21, 0,13, 0.00,60.00,SummerDesignDay
706,23.99999999999997
746,24.000000000000005
786,24.000000000000058
826,24.000000000000026
866,24.00000000000004
906,24.00000000000001
946,24.0
986,32.803398024027767
1026,24.000000000000055
1066,24.000000000000005
1106,24.000000000000005
1146,24.000000000000019
1186,24.00000000000001
1226,24.00000000000001
1266,24.000000000000005
1306,24.000000000000015
1346,26.61377392288991
1386,24.00000000000003
1426,24.00000000000003
1466,23.99999999999999
2,1, 7,21, 0,14, 0.00,10.00,SummerDesignDay
8,17.6311450462694
10,157643062.9580985
1580,0.0
1617,405611362.2013687
2,1, 7,21, 0,14,10.00,20.00,SummerDesignDay
8,17.665000449016245
10,157643062.9580985
1580,0.0
1617,407739783.56320497
2,1, 7,21, 0,14,20.00,30.00,SummerDesignDay
8,17.698812743128934
10,157643062.9580985
1580,0.0
1617,409797390.02507928
2,1, 7,21, 0,14,30.00,40.00,SummerDesignDay
8,17.732582050940107
10,157643062.9580985
1580,0.0
1617,411819863.73652026
2,1, 7,21, 0,14,40.00,50.00,SummerDesignDay
8,17.766307345121004
10,157643062.9580985
1580,0.0
1617,413833901.7848505
2,1, 7,21, 0,14,50.00,60.00,SummerDesignDay
8,17.79999023167558
10,157643062.9580985
1580,0.0
1617,415834041.3697474
2,1, 7,21, 0,14, 0.00,60.00,SummerDesignDay
706,24.000000000000015
746,23.999999999999998
786,24.000000000000047
826,24.00000000000007
866,24.00000000000003
906,24.000000000000005
946,24.000000000000019
986,33.09838789300706
1026,23.999999999999969
1066,24.00000000000001
1106,24.0
1146,24.000000000000015
1186,24.0
1226,24.00000000000001
1266,24.00000000000001
1306,24.000000000000044
1346,26.82022208555772
1386,24.000000000000026
1426,24.00000000000001
1466,24.000000000000019
2,1, 7,21, 0,15, 0.00,10.00,SummerDesignDay
8,17.79999023167558
10,157643062.9580985
1580,0.0
1617,641305584.179365
2,1, 7,21, 0,15,10.00,20.00,SummerDesignDay
8,17.79999023167558
10,157643062.9580985
1580,0.0
1617,486134029.0919858
2,1, 7,21, 0,15,20.00,30.00,SummerDesignDay
8,17.79999023167558
10,157643062.9580985
1580,0.0
1617,526658544.4791299
2,1, 7,21, 0,15,30.00,40.00,SummerDesignDay
8,17.79999023167558
10,157643062.9580985
1580,0.0
1617,474209516.3229268
2,1, 7,21, 0,15,40.00,50.00,SummerDesignDay
8,17.79999023167558
10,157643062.9580985
1580,0.0
1617,473717166.3555435
2,1, 7,21, 0,15,50.00,60.00,SummerDesignDay
8,17.79999023167558
10,157643062.9580985
1580,0.0
1617,471968680.4293525
2,1, 7,21, 0,15, 0.00,60.00,SummerDesignDay
706,24.000000000000015
746,24.0
786,24.000000000000005
826,24.000000000000005
866,24.00000000000003
906,24.000000000000015
946,24.0
986,23.952060043439187
1026,24.0
1066,24.0
1106,24.00000000000001
1146,24.00000000000001
1186,24.000000000000005
1226,24.0
1266,24.0
1306,24.000000000000005
1346,23.854008438791099
1386,24.000000000000005
1426,23.999999999999987
1466,24.000000000000026
2,1, 7,21, 0,16, 0.00,10.00,SummerDesignDay
8,17.759562446305357
10,165489872.64908115
1580,0.0
1617,472291224.83811047
2,1, 7,21, 0,16,10.00,20.00,SummerDesignDay
8,17.71907809634183
10,165489872.64908115
1580,0.0
1617,469048635.6967229
2,1, 7,21, 0,16,20.00,30.00,SummerDesignDay
8,17.67853788661001
10,165489872.64908115
1580,0.0
1617,465153674.73867776
2,1, 7,21, 0,16,30.00,40.00,SummerDesignDay
8,17.63791796367351
10,165489872.64908115
1580,0.0
1617,461028583.32697936
2,1, 7,21, 0,16,40.00,50.00,SummerDesignDay
8,17.59724609886134
10,165489872.64908115
1580,0.0
1617,456693235.79715588
2,1, 7,21, 0,16,50.00,60.00,SummerDesignDay
8,17.55650676726033
10,165489872.64908115
1580,0.0
1617,452204302.34543916
2,1, 7,21, 0,16, 0.00,60.00,SummerDesignDay
706,24.000000000000047
746,24.00000000000001
786,23.99999999999997
826,24.000000000000019
866,23.99999999999997
906,24.000000000000005
946,24.00000000000001
986,23.99999999999996
1026,23.999999999999987
1066,24.000000000000005
1106,24.000000000000005
1146,24.000000000000005
1186,24.000000000000005
1226,24.000000000000005
1266,24.000000000000005
1306,24.0
1346,24.00000000000003
1386,23.999999999999998
1426,24.00000000000001
1466,24.000000000000015
2,1, 7,21, 0,17, 0.00,10.00,SummerDesignDay
8,17.50209486331892
10,162002401.67531107
1580,0.0
1617,444981802.05027666
2,1, 7,21, 0,17,10.00,20.00,SummerDesignDay
8,17.447570789624618
10,162002401.67531107
1580,0.0
1617,439248572.56156769
2,1, 7,21, 0,17,20.00,30.00,SummerDesignDay
8,17.392929544208135
10,162002401.67531107
1580,0.0
1617,433554809.4444376
2,1, 7,21, 0,17,30.00,40.00,SummerDesignDay
8,17.33818013976614
10,162002401.67531107
1580,0.0
1617,427745275.82646009
2,1, 7,21, 0,17,40.00,50.00,SummerDesignDay
8,17.283317298559309
10,162002401.67531107
1580,0.0
1617,421828908.24875327
2,1, 7,21, 0,17,50.00,60.00,SummerDesignDay
8,17.22833552437677
10,162002401.67531107
1580,0.0
1617,415790195.0735178
2,1, 7,21, 0,17, 0.00,60.00,SummerDesignDay
706,24.00000000000003
746,24.000000000000005
786,24.000000000000069
826,24.000000000000026
866,24.000000000000015
906,24.000000000000015
946,24.000000000000015
986,24.0
1026,24.00000000000001
1066,24.0
1106,24.00000000000001
1146,24.000000000000005
1186,24.000000000000005
1226,24.00000000000001
1266,24.000000000000005
1306,23.99999999999999
1346,24.000000000000019
1386,23.99999999999996
1426,24.000000000000015
1466,24.000000000000058
2,1, 7,21, 0,18, 0.00,10.00,SummerDesignDay
8,17.159453019160176
10,154217466.46786256
1580,0.0
1617,402394961.67055299
2,1, 7,21, 0,18,10.00,20.00,SummerDesignDay
8,17.090391773337136
10,154217466.46786256
1580,0.0
1617,394885083.17658337
2,1, 7,21, 0,18,20.00,30.00,SummerDesignDay
8,17.021151077964786
10,154217466.46786256
1580,0.0
1617,387508320.6469896
2,1, 7,21, 0,18,30.00,40.00,SummerDesignDay
8,16.951729380464653
10,154217466.46786256
1580,0.0
1617,380164732.268171
2,1, 7,21, 0,18,40.00,50.00,SummerDesignDay
8,16.882126503829249
10,154217466.46786256
1580,0.0
1617,372935243.7319497
2,1, 7,21, 0,18,50.00,60.00,SummerDesignDay
8,16.812341807494034
10,154217466.46786256
1580,0.0
1617,365747543.5985192
2,1, 7,21, 0,18, 0.00,60.00,SummerDesignDay
706,24.000000000000044
746,24.000000000000005
786,24.000000000000019
826,24.0
866,24.000000000000015
906,24.000000000000005
946,23.999999999999998
986,24.00000000000004
1026,24.0
1066,24.00000000000001
1106,24.0
1146,24.000000000000005
1186,24.000000000000005
1226,24.000000000000005
1266,23.999999999999998
1306,24.000000000000026
1346,23.99999999999999
1386,24.00000000000004
1426,24.000000000000033
1466,24.000000000000076
2,1, 7,21, 0,19, 0.00,10.00,SummerDesignDay
8,16.707321072823203
10,133337640.245007
1580,0.0
1617,341543840.4196619
2,1, 7,21, 0,19,10.00,20.00,SummerDesignDay
8,16.601881826644556
10,133337640.245007
1580,0.0
1617,332128707.45438948
2,1, 7,21, 0,19,20.00,30.00,SummerDesignDay
8,16.496030555252849
10,133337640.245007
1580,0.0
1617,323358205.87352308
2,1, 7,21, 0,19,30.00,40.00,SummerDesignDay
8,16.389760181474104
10,133337640.245007
1580,0.0
1617,314776639.0389735
2,1, 7,21, 0,19,40.00,50.00,SummerDesignDay
8,16.283067654262039
10,133337640.245007
1580,0.0
1617,306387408.28798988
2,1, 7,21, 0,19,50.00,60.00,SummerDesignDay
8,16.17595057957811
10,133337640.245007
1580,0.0
1617,298145120.1083639
2,1, 7,21, 0,19, 0.00,60.00,SummerDesignDay
706,24.000000000000005
746,24.000000000000019
786,23.999999999999998
826,24.0
866,23.99999999999999
906,24.00000000000001
946,24.00000000000001
986,24.000000000000033
1026,24.000000000000026
1066,24.00000000000001
1106,24.000000000000005
1146,24.000000000000019
1186,24.00000000000001
1226,24.0
1266,24.0
1306,24.000000000000019
1346,23.99999999999999
1386,24.000000000000076
1426,24.0
1466,24.000000000000015
2,1, 7,21, 0,20, 0.00,10.00,SummerDesignDay
8,16.097123145563505
10,138379473.27806763
1580,0.0
1617,270576570.6181726
2,1, 7,21, 0,20,10.00,20.00,SummerDesignDay
8,16.018070242471564
10,138379473.27806763
1580,0.0
1617,264308308.86855886
2,1, 7,21, 0,20,20.00,30.00,SummerDesignDay
8,15.938779752340516
10,138379473.27806763
1580,0.0
1617,257566448.6523077
2,1, 7,21, 0,20,30.00,40.00,SummerDesignDay
8,15.85926152575189
10,138379473.27806763
1580,0.0
1617,250695669.12943623
2,1, 7,21, 0,20,40.00,50.00,SummerDesignDay
8,15.779503718563929
10,138379473.27806763
1580,0.0
1617,243567949.74011279
2,1, 7,21, 0,20,50.00,60.00,SummerDesignDay
8,15.699515709672767
10,138379473.27806763
1580,0.0
1617,236152198.7764955
2,1, 7,21, 0,20, 0.00,60.00,SummerDesignDay
706,24.000000000000015
746,24.00000000000001
786,24.000000000000019
826,25.606731408660314
866,24.000000000000015
906,24.000000000000005
946,24.000000000000005
986,24.00000000000001
1026,24.000000000000005
1066,24.0
1106,24.000000000000005
1146,23.999999999999998
1186,24.43842873883237
1226,24.000000000000005
1266,24.000000000000005
1306,24.00000000000001
1346,24.00000000000001
1386,24.000000000000005
1426,24.000000000000019
1466,24.0
2,1, 7,21, 0,21, 0.00,10.00,SummerDesignDay
8,15.63389147320404
10,140074459.17061753
1580,0.0
1617,230035597.51132176
2,1, 7,21, 0,21,10.00,20.00,SummerDesignDay
8,15.56810827419793
10,140074459.17061753
1580,0.0
1617,222516550.42253889
2,1, 7,21, 0,21,20.00,30.00,SummerDesignDay
8,15.502170882753524
10,140074459.17061753
1580,0.0
1617,214778940.36747349
2,1, 7,21, 0,21,30.00,40.00,SummerDesignDay
8,15.436068032613852
10,140074459.17061753
1580,0.0
1617,207048180.25281365
2,1, 7,21, 0,21,40.00,50.00,SummerDesignDay
8,15.369804371206009
10,140074459.17061753
1580,0.0
1617,199927528.33526416
2,1, 7,21, 0,21,50.00,60.00,SummerDesignDay
8,15.303384603594449
10,140074459.17061753
1580,0.0
1617,192344362.86739347
2,1, 7,21, 0,21, 0.00,60.00,SummerDesignDay
706,24.00000000000001
746,24.000000000000005
786,24.000000000000015
826,26.389406600851399
866,24.000000000000026
906,24.000000000000015
946,24.000000000000005
986,23.99999999999999