Program Version,EnergyPlus, Version 8.9.0-eba93e8e1b, YMD=2019.03.19 18:41
1,5,Environment Title[],Latitude[deg],Longitude[deg],Time Zone[],Elevation[m]
2,8,Day of Simulation[],Month[],Day of Month[],DST Indicator[1=yes 0=no],Hour[],StartMinute[],EndMinute[],DayType
3,5,Cumulative Day of Simulation[],Month[],Day of Month[],DST Indicator[1=yes 0=no],DayType  ! When Daily Report Variables Requested
4,2,Cumulative Days of Simulation[],Month[]  ! When Monthly Report Variables Requested
5,1,Cumulative Days of Simulation[] ! When Run Period Report Variables Requested
6,1,Calendar Year of Simulation[] ! When Annual Report Variables Requested
7,9,Environment,Site Outdoor Air Drybulb Temperature [C] !Monthly [Value,Min,Day,Hour,Minute,Max,Day,Hour,Minute]
8,1,Environment,Site Outdoor Air Wetbulb Temperature [C] !TimeStep
771,1,MFG - CORR. < 2.4M-SCH-I-SPACE FUNCTION ZN,Zone Air Temperature [C] !Hourly
772,7,MFG - CORR. < 2.4M-SCH-I-SPACE FUNCTION ZN,Zone Air Relative Humidity [%] !Daily [Value,Min,Hour,Minute,Max,Hour,Minute]
811,1,MFG - CORR. >= 2.4M-SCH-A-SPACE FUNCTION ZN,Zone Air Temperature [C] !Hourly
812,7,MFG - CORR. >= 2.4M-SCH-A-SPACE FUNCTION ZN,Zone Air Relative Humidity [%] !Daily [Value,Min,Hour,Minute,Max,Hour,Minute]
851,1,MFG - CORR. >= 2.4M-SCH-B-SPACE FUNCTION ZN,Zone Air Temperature [C] !Hourly
852,7,MFG - CORR. >= 2.4M-SCH-B-SPACE FUNCTION ZN,Zone Air Relative Humidity [%] !Daily [Value,Min,Hour,Minute,Max,Hour,Minute]
891,1,MFG - CORR. >= 2.4M-SCH-C-SPACE FUNCTION ZN,Zone Air Temperature [C] !Hourly
892,7,MFG - CORR. >= 2.4M-SCH-C-SPACE FUNCTION ZN,Zone Air Relative Humidity [%] !Daily [Value,Min,Hour,Minute,Max,Hour,Minute]
931,1,MFG - CORR. >= 2.4M-SCH-D-SPACE FUNCTION ZN,Zone Air Temperature [C] !Hourly
932,7,MFG - CORR. >= 2.4M-SCH-D-SPACE FUNCTION ZN,Zone Air Relative Humidity [%] !Daily [Value,Min,Hour,Minute,Max,Hour,Minute]
971,1,MFG - CORR. >= 2.4M-SCH-E-SPACE FUNCTION ZN,Zone Air Temperature [C] !Hourly
972,7,MFG - CORR. >= 2.4M-SCH-E-SPACE FUNCTION ZN,Zone Air Relative Humidity [%] !Daily [Value,Min,Hour,Minute,Max,Hour,Minute]
1011,1,MFG - CORR. >= 2.4M-SCH-F-SPACE FUNCTION ZN,Zone Air Temperature [C] !Hourly
1012,7,MFG - CORR. >= 2.4M-SCH-F-SPACE FUNCTION ZN,Zone Air Relative Humidity [%] !Daily [Value,Min,Hour,Minute,Max,Hour,Minute]
1051,1,MFG - CORR. >= 2.4M-SCH-G-SPACE FUNCTION ZN,Zone Air Temperature [C] !Hourly
1052,7,MFG - CORR. >= 2.4M-SCH-G-SPACE FUNCTION ZN,Zone Air Relative Humidity [%] !Daily [Value,Min,Hour,Minute,Max,Hour,Minute]
1091,1,MFG - CORR. >= 2.4M-SCH-H-SPACE FUNCTION ZN,Zone Air Temperature [C] !Hourly
1092,7,MFG - CORR. >= 2.4M-SCH-H-SPACE FUNCTION ZN,Zone Air Relative Humidity [%] !Daily [Value,Min,Hour,Minute,Max,Hour,Minute]
1131,1,MFG - CORR. >= 2.4M-SCH-I-SPACE FUNCTION ZN,Zone Air Temperature [C] !Hourly
1132,7,MFG - CORR. >= 2.4M-SCH-I-SPACE FUNCTION ZN,Zone Air Relative Humidity [%] !Daily [Value,Min,Hour,Minute,Max,Hour,Minute]
1171,1,MFG - DETAILED-SPACE FUNCTION ZN,Zone Air Temperature [C] !Hourly
1172,7,MFG - DETAILED-SPACE FUNCTION ZN,Zone Air Relative Humidity [%] !Daily [Value,Min,Hour,Minute,Max,Hour,Minute]
1211,1,MFG - EQUIPMENT-SPACE FUNCTION ZN,Zone Air Temperature [C] !Hourly
1212,7,MFG - EQUIPMENT-SPACE FUNCTION ZN,Zone Air Relative Humidity [%] !Daily [Value,Min,Hour,Minute,Max,Hour,Minute]
1251,1,MUSEUM - EXHIBITION-SPACE FUNCTION ZN,Zone Air Temperature [C] !Hourly
1252,7,MUSEUM - EXHIBITION-SPACE FUNCTION ZN,Zone Air Relative Humidity [%] !Daily [Value,Min,Hour,Minute,Max,Hour,Minute]
1291,1,MUSEUM - RESTORATION-SPACE FUNCTION ZN,Zone Air Temperature [C] !Hourly
1292,7,MUSEUM - RESTORATION-SPACE FUNCTION ZN,Zone Air Relative Humidity [%] !Daily [Value,Min,Hour,Minute,Max,Hour,Minute]
1331,1,OFFICE - ENCLOSED - OCCSENS-SPACE FUNCTION ZN,Zone Air Temperature [C] !Hourly
1332,7,OFFICE - ENCLOSED - OCCSENS-SPACE FUNCTION ZN,Zone Air Relative Humidity [%] !Daily [Value,Min,Hour,Minute,Max,Hour,Minute]
1371,1,OFFICE - ENCLOSED-SPACE FUNCTION ZN,Zone Air Temperature [C] !Hourly
1372,7,OFFICE - ENCLOSED-SPACE FUNCTION ZN,Zone Air Relative Humidity [%] !Daily [Value,Min,Hour,Minute,Max,Hour,Minute]
1411,1,OFFICE - OPEN PLAN-SPACE FUNCTION ZN,Zone Air Temperature [C] !Hourly
1412,7,OFFICE - OPEN PLAN-SPACE FUNCTION ZN,Zone Air Relative Humidity [%] !Daily [Value,Min,Hour,Minute,Max,Hour,Minute]
1451,1,PARKING GARAGE SPACE-SPACE FUNCTION ZN,Zone Air Temperature [C] !Hourly
1452,7,PARKING GARAGE SPACE-SPACE FUNCTION ZN,Zone Air Relative Humidity [%] !Daily [Value,Min,Hour,Minute,Max,Hour,Minute]
1491,1,PENITENTIARY - AUDIENCE-SPACE FUNCTION ZN,Zone Air Temperature [C] !Hourly
1492,7,PENITENTIARY - AUDIENCE-SPACE FUNCTION ZN,Zone Air Relative Humidity [%] !Daily [Value,Min,Hour,Minute,Max,Hour,Minute]
1531,1,PENITENTIARY - CLASSROOM-SPACE FUNCTION ZN,Zone Air Temperature [C] !Hourly
1532,7,PENITENTIARY - CLASSROOM-SPACE FUNCTION ZN,Zone Air Relative Humidity [%] !Daily [Value,Min,Hour,Minute,Max,Hour,Minute]
10,1,Electricity:Facility [J] !TimeStep
1682,1,DistrictCooling:Facility [J] !TimeStep
1645,1,DistrictHeating:Facility [J] !TimeStep
End of Data Dictionary
1,FORT MCMURRAY AP ANN CLG .4% CONDNS DB=>MWB,  56.65,-111.22,  -7.00, 369.10
2,1, 7,21, 0, 1, 0.00,10.00,SummerDesignDay
8,14.218136923962174
10,36814006.113591659
1645,4776102.081157051
1682,0.0
2,1, 7,21, 0, 1,10.00,20.00,SummerDesignDay
8,14.171982153293495
10,36814006.113591659
1645,5368893.632103897
1682,0.0
2,1, 7,21, 0, 1,20.00,30.00,SummerDesignDay
8,14.125744780286427
10,36814006.113591659
1645,5959529.170600284
1682,0.0
2,1, 7,21, 0, 1,30.00,40.00,SummerDesignDay
8,14.079436086331978
10,36814006.113591659
1645,6547990.971625294
1682,0.0
2,1, 7,21, 0, 1,40.00,50.00,SummerDesignDay
8,14.033050387896898
10,36814006.113591659
1645,7134364.7164293969
1682,0.0
2,1, 7,21, 0, 1,50.00,60.00,SummerDesignDay
8,13.986581233564835
10,36814006.113591659
1645,7718768.442811049
1682,0.0
2,1, 7,21, 0, 1, 0.00,60.00,SummerDesignDay
771,22.722328012313754
811,21.7090958147231
851,23.128368373814003
891,23.03954833593993
931,23.360392101485684
971,23.668469020671485
1011,23.176047854969853
1051,22.352978691570998
1091,23.195850253917248
1131,22.880842480845418
1171,22.68287353632678
1211,24.386649230964279
1251,21.967899934174409
1291,24.31781338440184
1331,24.786021154259506
1371,24.430831695761616
1411,23.383514120408589
1451,22.000000070731248
1491,22.040587384948794
1531,22.215149779087228
2,1, 7,21, 0, 2, 0.00,10.00,SummerDesignDay
8,13.95555882260429
10,27347209.904003145
1645,0.0
1682,0.0
2,1, 7,21, 0, 2,10.00,20.00,SummerDesignDay
8,13.924507755336454
10,27347209.904003145
1645,0.0
1682,0.0
2,1, 7,21, 0, 2,20.00,30.00,SummerDesignDay
8,13.893416042989206
10,27347209.904003145
1645,0.0
1682,0.0
2,1, 7,21, 0, 2,30.00,40.00,SummerDesignDay
8,13.862289589689029
10,27347209.904003145
1645,0.0
1682,0.0
2,1, 7,21, 0, 2,40.00,50.00,SummerDesignDay
8,13.831134407608739
10,27347209.904003145
1645,0.0
1682,0.0
2,1, 7,21, 0, 2,50.00,60.00,SummerDesignDay
8,13.799938415548118
10,27347209.904003145
1645,0.0
1682,0.0
2,1, 7,21, 0, 2, 0.00,60.00,SummerDesignDay
771,21.917310898493566
811,21.275155144776624
851,22.502102108415199
891,22.745890983703516
931,23.024603743762158
971,23.34356104838355
1011,22.822384508591715
1051,21.967880559046049
1091,22.93946027612184
1131,22.425986259200149
1171,22.426822310031814
1211,24.04806445992419
1251,21.638086976308018
1291,24.05239572113391
1331,24.597912138270528
1371,24.2310533479302
1411,23.028365018287408
1451,20.94851088474476
1491,21.699335686189813
1531,21.831706735743084
2,1, 7,21, 0, 3, 0.00,10.00,SummerDesignDay
8,13.776521671948676
10,25367226.382473604
1645,0.0
1682,0.0
2,1, 7,21, 0, 3,10.00,20.00,SummerDesignDay
8,13.753085235778466
10,25367226.382473604
1645,0.0
1682,0.0
2,1, 7,21, 0, 3,20.00,30.00,SummerDesignDay
8,13.729636002354969
10,25367226.382473604
1645,0.0
1682,0.0
2,1, 7,21, 0, 3,30.00,40.00,SummerDesignDay
8,13.706147375533054
10,25367226.382473604
1645,0.0
1682,0.0
2,1, 7,21, 0, 3,40.00,50.00,SummerDesignDay
8,13.682651961920304
10,25367226.382473604
1645,0.0
1682,0.0
2,1, 7,21, 0, 3,50.00,60.00,SummerDesignDay
8,13.659136670643687
10,25367226.382473604
1645,0.0
1682,0.0
2,1, 7,21, 0, 3, 0.00,60.00,SummerDesignDay
771,21.379788840746547
811,20.90008327595801
851,21.849703837707865
891,22.490340408917964
931,22.721708847500865
971,23.0479223435478
1011,22.54670612701861
1051,21.711645549496045
1091,22.720850796018284
1131,22.150850485899104
1171,22.20970211223614
1211,23.742940125570084
1251,21.367545586755658
1291,23.81444522840708
1331,24.41966079689318
1371,24.044339458771089
1411,22.691852138201143
1451,20.330664701239046
1491,21.421103768924426
1531,21.522959200784766
2,1, 7,21, 0, 4, 0.00,10.00,SummerDesignDay
8,13.63560137410855
10,24872230.502091215
1645,0.0
1682,0.0
2,1, 7,21, 0, 4,10.00,20.00,SummerDesignDay
8,13.612040802606578
10,24872230.502091215
1645,0.0
1682,0.0
2,1, 7,21, 0, 4,20.00,30.00,SummerDesignDay
8,13.58846620506876
10,24872230.502091215
1645,0.0
1682,0.0
2,1, 7,21, 0, 4,30.00,40.00,SummerDesignDay
8,13.56487178447336
10,24872230.502091215
1645,0.0
1682,0.0
2,1, 7,21, 0, 4,40.00,50.00,SummerDesignDay
8,13.541257354069103
10,24872230.502091215
1645,0.0
1682,0.0
2,1, 7,21, 0, 4,50.00,60.00,SummerDesignDay
8,13.517617463812285
10,24872230.502091215
1645,0.0
1682,0.0
2,1, 7,21, 0, 4, 0.00,60.00,SummerDesignDay
771,21.012747236190245
811,20.57867870590844
851,21.3961381680124
891,22.258640735665116
931,22.437148277946993
971,22.773192208724919
1011,22.27776734597988
1051,21.515445503366853
1091,22.523422871935755
1131,21.95093205625729
1171,22.015026866142134
1211,23.456479230742173
1251,21.133601153117195
1291,23.595610595666345
1331,24.25177171000443
1371,23.876737126572114
1411,22.3993033598607
1451,19.96355956894426
1491,21.177993344036165
1531,21.248883036084327
2,1, 7,21, 0, 5, 0.00,10.00,SummerDesignDay
8,13.50185415824011
10,24872230.502091215
1645,0.0
1682,0.0
2,1, 7,21, 0, 5,10.00,20.00,SummerDesignDay
8,13.486076034032447
10,24872230.502091215
1645,0.0
1682,0.0
2,1, 7,21, 0, 5,20.00,30.00,SummerDesignDay
8,13.470289340350983
10,24872230.502091215
1645,0.0
1682,0.0
2,1, 7,21, 0, 5,30.00,40.00,SummerDesignDay
8,13.454493322631063
10,24872230.502091215
1645,0.0
1682,0.0
2,1, 7,21, 0, 5,40.00,50.00,SummerDesignDay
8,13.438688835118548
10,24872230.502091215
1645,0.0
1682,0.0
2,1, 7,21, 0, 5,50.00,60.00,SummerDesignDay
8,13.422888173889437
10,24872230.502091215
1645,0.0
1682,0.0
2,1, 7,21, 0, 5, 0.00,60.00,SummerDesignDay
771,20.96128526609742
811,20.470402200395094
851,21.124484785998793
891,22.039288511823103
931,22.1711152330903
971,22.617652286596383
1011,22.099834533002789
1051,21.33600232656457
1091,22.397551423295409
1131,21.76884657567992
1171,21.832077207915974
1211,23.18714997691264
1251,20.92029445661269
1291,23.391090769327819
1331,24.19556708346089
1371,23.71505183851053
1411,22.19042193689309
1451,19.70638498272439
1491,20.95529157506848
1531,21.003573679426525
2,1, 7,21, 0, 6, 0.00,10.00,SummerDesignDay
8,13.438688835118548
10,24872230.502091215
1645,0.0
1682,0.0
2,1, 7,21, 0, 6,10.00,20.00,SummerDesignDay
8,13.454493322631063
10,24872230.502091215
1645,0.0
1682,0.0
2,1, 7,21, 0, 6,20.00,30.00,SummerDesignDay
8,13.470289340350983
10,24872230.502091215
1645,0.0
1682,0.0
2,1, 7,21, 0, 6,30.00,40.00,SummerDesignDay
8,13.486076034032447
10,24872230.502091215
1645,0.0
1682,0.0
2,1, 7,21, 0, 6,40.00,50.00,SummerDesignDay
8,13.50185415824011
10,24872230.502091215
1645,0.0
1682,0.0
2,1, 7,21, 0, 6,50.00,60.00,SummerDesignDay
8,13.517617463812285
10,24872230.502091215
1645,0.0
1682,0.0
2,1, 7,21, 0, 6, 0.00,60.00,SummerDesignDay
771,21.91444110780338
811,20.784411882940366
851,21.17485459297116
891,21.90312026341988
931,22.003538895563226
971,22.899348117906155
1011,22.067007422490219
1051,21.23424419819619
1091,22.396280353631899
1131,21.674534852782874
1171,21.728220657834897
1211,23.014097617528877
1251,20.811549602689899
1291,23.260132961861243
1331,24.577109038259854
1371,23.5868149895408
1411,22.25868983430181
1451,19.765895901868988
1491,20.83904081357465
1531,20.895990164711298
2,1, 7,21, 0, 7, 0.00,10.00,SummerDesignDay
8,13.572736920571789
10,26687215.39682663
1645,0.0
1682,15954549.671334019
2,1, 7,21, 0, 7,10.00,20.00,SummerDesignDay
8,13.627748229152554
10,26687215.39682663
1645,0.0
1682,0.0
2,1, 7,21, 0, 7,20.00,30.00,SummerDesignDay
8,13.682651961920304
10,26687215.39682663
1645,0.0
1682,3527632.03574741
2,1, 7,21, 0, 7,30.00,40.00,SummerDesignDay
8,13.737448093244995
10,26687215.39682663
1645,0.0
1682,11659553.360946166
2,1, 7,21, 0, 7,40.00,50.00,SummerDesignDay
8,13.792137011831216
10,26687215.39682663
1645,0.0
1682,7492186.182344546
2,1, 7,21, 0, 7,50.00,60.00,SummerDesignDay
8,13.846719282840333
10,26687215.39682663
1645,0.0
1682,8612575.745875104
2,1, 7,21, 0, 7, 0.00,60.00,SummerDesignDay
771,23.191956517599903
811,21.140280271662346
851,21.590208999532679
891,21.93712455081345
931,22.01536469348299
971,23.367832675212516
1011,22.10149600984526
1051,21.356713038557328
1091,22.41779143997357
1131,21.766919990769585
1171,21.781225624714407
1211,23.015715706776118
1251,20.911843678766453
1291,23.256309309411426
1331,23.921233617350315
1371,23.543512511863587
1411,22.64778324326558
1451,20.243714104693525
1491,20.940957971529064
1531,21.034028084412325
2,1, 7,21, 0, 8, 0.00,10.00,SummerDesignDay
8,13.978831900527043
10,57925392.917914789
1645,11070088.191972666
1682,11174220.718917929
2,1, 7,21, 0, 8,10.00,20.00,SummerDesignDay
8,14.110321014287419
10,57925392.917914789
1645,0.0
1682,11697793.53094427
2,1, 7,21, 0, 8,20.00,30.00,SummerDesignDay
8,14.241191509616986
10,57925392.917914789
1645,0.0
1682,14456187.63640611
2,1, 7,21, 0, 8,30.00,40.00,SummerDesignDay
8,14.371447531304272
10,57925392.917914789
1645,0.0
1682,24815783.71626458
2,1, 7,21, 0, 8,40.00,50.00,SummerDesignDay
8,14.501093766564925
10,57925392.917914789
1645,0.0
1682,28007766.527763994
2,1, 7,21, 0, 8,50.00,60.00,SummerDesignDay
8,14.630134792273804
10,57925392.917914789
1645,0.0
1682,31670515.572428235
2,1, 7,21, 0, 8, 0.00,60.00,SummerDesignDay
771,24.877494939675235
811,22.531944773146127
851,22.651518826173999
891,22.24712253014098
931,22.31265108282182
971,23.911070352183203
1011,22.45613154882643
1051,21.795095976369848
1091,22.72415143124501
1131,22.14449003532305
1171,22.374785363640897
1211,23.604482053729197
1251,21.350657087815866
1291,23.722622717797237
1331,23.9999999972465
1371,23.91839693304399
1411,23.77538753487489
1451,21.440767340109735
1491,21.408796001670227
1531,21.58337337980878
2,1, 7,21, 0, 9, 0.00,10.00,SummerDesignDay
8,14.773641492809972
10,150433373.01482553
1645,2501773.560998716
1682,85435966.3977528
2,1, 7,21, 0, 9,10.00,20.00,SummerDesignDay
8,14.91640948124148
10,150433373.01482553
1645,0.0
1682,94624109.16850025
2,1, 7,21, 0, 9,20.00,30.00,SummerDesignDay
8,15.05843890714102
10,150433373.01482553
1645,0.0
1682,112783794.70151757
2,1, 7,21, 0, 9,30.00,40.00,SummerDesignDay
8,15.199735893563798
10,150433373.01482553
1645,0.0
1682,122716447.78543467
2,1, 7,21, 0, 9,40.00,50.00,SummerDesignDay
8,15.340306256439395
10,150433373.01482553
1645,0.0
1682,138099293.79141713
2,1, 7,21, 0, 9,50.00,60.00,SummerDesignDay
8,15.48015101768072
10,150433373.01482553
1645,0.0
1682,155804936.27855964
2,1, 7,21, 0, 9, 0.00,60.00,SummerDesignDay
771,26.921725896015756
811,23.87732735731062
851,23.930371858900548
891,23.03824321083107
931,23.053040821882165
971,23.999999997995976
1011,23.15404503373981
1051,22.503445793628957
1091,23.378885381133704
1131,22.85306730416767
1171,23.64567893740136
1211,23.999696991488184
1251,22.836888282246237
1291,23.99994475049486
1331,24.000000000000015
1371,23.999999999981797
1411,23.999999999608979
1451,23.36010736699934
1491,22.7086630829786
1531,22.943122012166783
2,1, 7,21, 0,10, 0.00,10.00,SummerDesignDay
8,15.60467292907716
10,192220400.2368357
1645,0.0
1682,196151994.6342299
2,1, 7,21, 0,10,10.00,20.00,SummerDesignDay
8,15.72862731650033
10,192220400.2368357
1645,0.0
1682,220918313.76051236
2,1, 7,21, 0,10,20.00,30.00,SummerDesignDay
8,15.852017409284228
10,192220400.2368357
1645,0.0
1682,250963994.3775234
2,1, 7,21, 0,10,30.00,40.00,SummerDesignDay
8,15.974848118364367
10,192220400.2368357
1645,0.0
1682,272915836.5237663
2,1, 7,21, 0,10,40.00,50.00,SummerDesignDay
8,16.097123145563505
10,192220400.2368357
1645,0.0
1682,293680217.813522
2,1, 7,21, 0,10,50.00,60.00,SummerDesignDay
8,16.218846351168599
10,192220400.2368357
1645,0.0
1682,315396867.1540266
2,1, 7,21, 0,10, 0.00,60.00,SummerDesignDay
771,28.699510215955784
811,23.999999999773736
851,23.999999999911837
891,23.89690319006454
931,23.93083058315162
971,24.00000000000001
1011,23.87973169350586
1051,23.20155310659167
1091,23.968623656546844
1131,23.68426038339871
1171,23.999999656272896
1211,23.999999999999955
1251,23.961916056382436
1291,24.000000000000033
1331,24.000000000000033
1371,24.00000000000001
1411,24.000000000000019
1451,23.99997152963277
1491,23.909564915335328
1531,23.99536551809571
2,1, 7,21, 0,11, 0.00,10.00,SummerDesignDay
8,16.325793027093189
10,194200383.7583652
1645,0.0
1682,345262070.17388036
2,1, 7,21, 0,11,10.00,20.00,SummerDesignDay
8,16.432322158488288
10,194200383.7583652
1645,0.0
1682,363263963.2684046
2,1, 7,21, 0,11,20.00,30.00,SummerDesignDay
8,16.538424180249178
10,194200383.7583652
1645,0.0
1682,381798158.095508
2,1, 7,21, 0,11,30.00,40.00,SummerDesignDay
8,16.644108396469087
10,194200383.7583652
1645,0.0
1682,401743559.9952666
2,1, 7,21, 0,11,40.00,50.00,SummerDesignDay
8,16.749376736593655
10,194200383.7583652
1645,0.0
1682,417749759.6329519
2,1, 7,21, 0,11,50.00,60.00,SummerDesignDay
8,16.854232613237156
10,194200383.7583652
1645,0.0
1682,434769274.7090586
2,1, 7,21, 0,11, 0.00,60.00,SummerDesignDay
771,29.76393105413177
811,24.000000000000026
851,23.999999999999998
891,23.999999836016469
931,23.999999992505854
971,24.00000000000003
1011,23.999998911068329
1051,23.926637903564168
1091,23.99999999744729
1131,24.571760163931228
1171,24.000000000000005
1211,24.0
1251,23.999999994173824
1291,24.00000000000001
1331,24.000000000000026
1371,24.00000000000003
1411,24.000000000000044
1451,23.999999999985037
1491,23.999999869154509
1531,23.999999993521
2,1, 7,21, 0,12, 0.00,10.00,SummerDesignDay
8,16.92390823520069
10,194695379.6387476
1645,0.0
1682,447581577.2862772
2,1, 7,21, 0,12,10.00,20.00,SummerDesignDay
8,16.99340178950456
10,194695379.6387476
1645,0.0
1682,459807768.7289968
2,1, 7,21, 0,12,20.00,30.00,SummerDesignDay
8,17.06272006743463
10,194695379.6387476
1645,0.0
1682,471828495.9098048
2,1, 7,21, 0,12,30.00,40.00,SummerDesignDay
8,17.131853229172639
10,194695379.6387476
1645,0.0
1682,483484543.1373443
2,1, 7,21, 0,12,40.00,50.00,SummerDesignDay
8,17.200807172194087
10,194695379.6387476
1645,0.0
1682,495049990.7387693
2,1, 7,21, 0,12,50.00,60.00,SummerDesignDay
8,17.269582116758607
10,194695379.6387476
1645,0.0
1682,506472720.79981836
2,1, 7,21, 0,12, 0.00,60.00,SummerDesignDay
771,30.314546887094637
811,24.00000000000003
851,23.999999999999987
891,23.999999999999934
931,24.0
971,24.000000000000044
1011,23.999999999999564
1051,23.999999859934804
1091,24.000000000000005
1131,25.385846033308046
1171,23.99999999999999
1211,24.000000000000015
1251,23.99999999999997
1291,24.0
1331,24.00000000000004
1371,24.0
1411,24.000000000000015
1451,23.999999999999987
1491,23.999999999999159
1531,23.999999999999849
2,1, 7,21, 0,13, 0.00,10.00,SummerDesignDay
8,17.32447360221357
10,194200383.7583652
1645,0.0
1682,511747315.0757394
2,1, 7,21, 0,13,10.00,20.00,SummerDesignDay
8,17.379251291230806
10,194200383.7583652
1645,0.0
1682,520349864.0168639
2,1, 7,21, 0,13,20.00,30.00,SummerDesignDay
8,17.433921312061729
10,194200383.7583652
1645,0.0
1682,528544788.40006658
2,1, 7,21, 0,13,30.00,40.00,SummerDesignDay
8,17.488473222557489
10,194200383.7583652
1645,0.0
1682,536561706.41716369
2,1, 7,21, 0,13,40.00,50.00,SummerDesignDay
8,17.542913447755134
10,194200383.7583652
1645,0.0
1682,544437180.1042957
2,1, 7,21, 0,13,50.00,60.00,SummerDesignDay
8,17.59724609886134
10,194200383.7583652
1645,0.0
1682,552170154.0492545
2,1, 7,21, 0,13, 0.00,60.00,SummerDesignDay
771,30.866881237539379
811,24.000000000000015
851,24.000000000000033
891,24.00000000000001
931,24.000000000000026
971,24.000000000000019
1011,24.000000000000015
1051,23.999999999999927
1091,23.99999999999999
1131,25.86397852273879
1171,24.000000000000005
1211,24.000000000000015
1251,24.0
1291,24.000000000000019
1331,24.0
1371,24.0
1411,24.000000000000019
1451,24.000000000000019
1491,24.0
1531,24.00000000000001
2,1, 7,21, 0,14, 0.00,10.00,SummerDesignDay
8,17.6311450462694
10,194200383.7583652
1645,0.0
1682,557403195.1979166
2,1, 7,21, 0,14,10.00,20.00,SummerDesignDay
8,17.665000449016245
10,194200383.7583652
1645,0.0
1682,562624515.9080359
2,1, 7,21, 0,14,20.00,30.00,SummerDesignDay
8,17.698812743128934
10,194200383.7583652
1645,0.0
1682,567854222.9399752
2,1, 7,21, 0,14,30.00,40.00,SummerDesignDay
8,17.732582050940107
10,194200383.7583652
1645,0.0
1682,573133522.1647382
2,1, 7,21, 0,14,40.00,50.00,SummerDesignDay
8,17.766307345121004
10,194200383.7583652
1645,0.0
1682,578467023.8356798
2,1, 7,21, 0,14,50.00,60.00,SummerDesignDay
8,17.79999023167558
10,194200383.7583652
1645,0.0
1682,583852197.3508116
2,1, 7,21, 0,14, 0.00,60.00,SummerDesignDay
771,31.33884643908672
811,23.999999999999984
851,24.000000000000019
891,23.999999999999998
931,24.000000000000026
971,24.000000000000019
1011,24.000000000000005
1051,24.0
1091,23.999999999999998
1131,26.19824904684424
1171,24.000000000000019
1211,24.00000000000001
1251,24.0
1291,24.00000000000003
1331,24.000000000000044
1371,24.000000000000019
1411,24.0
1451,24.000000000000055
1491,24.000000000000015
1531,24.000000000000047
2,1, 7,21, 0,15, 0.00,10.00,SummerDesignDay
8,17.79999023167558
10,194200383.7583652
1645,0.0
1682,789302104.4192633
2,1, 7,21, 0,15,10.00,20.00,SummerDesignDay
8,17.79999023167558
10,194200383.7583652
1645,0.0
1682,669030144.3632684
2,1, 7,21, 0,15,20.00,30.00,SummerDesignDay
8,17.79999023167558
10,194200383.7583652
1645,0.0
1682,693358704.3520161
2,1, 7,21, 0,15,30.00,40.00,SummerDesignDay
8,17.79999023167558
10,194200383.7583652
1645,0.0
1682,655483176.8488665
2,1, 7,21, 0,15,40.00,50.00,SummerDesignDay
8,17.79999023167558
10,194200383.7583652
1645,0.0
1682,656943192.9414173
2,1, 7,21, 0,15,50.00,60.00,SummerDesignDay
8,17.79999023167558
10,194200383.7583652
1645,0.0
1682,656711881.6684601
2,1, 7,21, 0,15, 0.00,60.00,SummerDesignDay
771,23.96620582746397
811,24.000000000000019
851,24.00000000000007
891,24.000000000000015
931,24.0
971,24.000000000000019
1011,24.000000000000015
1051,24.0
1091,24.00000000000001
1131,23.93586389308903
1171,23.999999999999998
1211,24.000000000000005
1251,24.000000000000015
1291,24.000000000000026
1331,24.00000000000004
1371,24.00000000000003
1411,24.0
1451,24.000000000000019
1491,24.000000000000019
1531,24.000000000000047
2,1, 7,21, 0,16, 0.00,10.00,SummerDesignDay
8,17.759562446305357
10,199212217.04451228
1645,0.0
1682,653890951.1181265
2,1, 7,21, 0,16,10.00,20.00,SummerDesignDay
8,17.71907809634183
10,199212217.04451228
1645,0.0
1682,648640264.9072683
2,1, 7,21, 0,16,20.00,30.00,SummerDesignDay
8,17.67853788661001
10,199212217.04451228
1645,0.0
1682,642749598.4543717
2,1, 7,21, 0,16,30.00,40.00,SummerDesignDay
8,17.63791796367351
10,199212217.04451228
1645,0.0
1682,636544887.4104761
2,1, 7,21, 0,16,40.00,50.00,SummerDesignDay
8,17.59724609886134
10,199212217.04451228
1645,0.0
1682,630065129.3960772
2,1, 7,21, 0,16,50.00,60.00,SummerDesignDay
8,17.55650676726033
10,199212217.04451228
1645,0.0
1682,623264161.3792307
2,1, 7,21, 0,16, 0.00,60.00,SummerDesignDay
771,23.999999999797315
811,24.000000000000015
851,24.000000000000047
891,24.000000000000005
931,24.000000000000026
971,24.0
1011,24.0
1051,24.0
1091,24.00000000000001
1131,23.999999999999849
1171,24.000000000000005
1211,24.000000000000015
1251,24.000000000000005
1291,24.000000000000026
1331,24.000000000000047
1371,24.00000000000004
1411,24.00000000000004
1451,24.000000000000019
1491,24.0
1531,24.00000000000003
2,1, 7,21, 0,17, 0.00,10.00,SummerDesignDay
8,17.50209486331892
10,193857261.61194516
1645,0.0
1682,612198736.9865583
2,1, 7,21, 0,17,10.00,20.00,SummerDesignDay
8,17.447570789624618
10,193857261.61194516
1645,0.0
1682,603032513.8848431
2,1, 7,21, 0,17,20.00,30.00,SummerDesignDay
8,17.392929544208135
10,193857261.61194516
1645,0.0
1682,593797349.8931693
2,1, 7,21, 0,17,30.00,40.00,SummerDesignDay
8,17.33818013976614
10,193857261.61194516
1645,0.0
1682,584418751.0085735
2,1, 7,21, 0,17,40.00,50.00,SummerDesignDay
8,17.283317298559309
10,193857261.61194516
1645,0.0
1682,574895193.6986781
2,1, 7,21, 0,17,50.00,60.00,SummerDesignDay
8,17.22833552437677
10,193857261.61194516
1645,0.0
1682,565252726.4670466
2,1, 7,21, 0,17, 0.00,60.00,SummerDesignDay
771,24.00000000000004
811,24.000000000000033
851,24.000000000000019
891,24.000000000000026
931,24.000000000000015
971,24.000000000000019
1011,24.00000000000001
1051,24.0
1091,24.000000000000005
1131,24.000000000000005
1171,23.99999999999999
1211,24.000000000000044
1251,23.999999999999998
1291,24.00000000000003
1331,24.000000000000026
1371,24.00000000000001
1411,23.999999999999984
1451,24.000000000000019
1491,24.0
1531,24.000000000000015
2,1, 7,21, 0,18, 0.00,10.00,SummerDesignDay
8,17.159453019160176
10,178995010.30308057
1645,0.0
1682,538552382.5346822
2,1, 7,21, 0,18,10.00,20.00,SummerDesignDay
8,17.090391773337136
10,178995010.30308057
1645,0.0
1682,525754118.1171026
2,1, 7,21, 0,18,20.00,30.00,SummerDesignDay
8,17.021151077964786
10,178995010.30308057
1645,0.0
1682,513191840.0284908
2,1, 7,21, 0,18,30.00,40.00,SummerDesignDay
8,16.951729380464653
10,178995010.30308057
1645,0.0
1682,500574138.94161459
2,1, 7,21, 0,18,40.00,50.00,SummerDesignDay
8,16.882126503829249
10,178995010.30308057
1645,0.0
1682,487979225.2500192
2,1, 7,21, 0,18,50.00,60.00,SummerDesignDay
8,16.812341807494034
10,178995010.30308057
1645,0.0
1682,474632984.2442689
2,1, 7,21, 0,18, 0.00,60.00,SummerDesignDay
771,23.99999999999999
811,24.0
851,24.000000000000033
891,24.00000000000001
931,24.0
971,24.00000000000001
1011,24.0
1051,24.0
1091,24.0
1131,24.000000000000005
1171,24.000000000000005
1211,24.00000000000004
1251,23.999999999999998
1291,24.000000000000015
1331,24.000000000000026
1371,24.00000000000003
1411,24.000000000000015
1451,24.000000000000005
1491,24.000000000000033
1531,23.99999999999999
2,1, 7,21, 0,19, 0.00,10.00,SummerDesignDay
8,16.707321072823203
10,133339515.27084045
1645,0.0
1682,418422464.1870956
2,1, 7,21, 0,19,10.00,20.00,SummerDesignDay
8,16.601881826644556
10,133339515.27084045
1645,0.0
1682,397270044.48576387
2,1, 7,21, 0,19,20.00,30.00,SummerDesignDay
8,16.496030555252849
10,133339515.27084045
1645,0.0
1682,377643049.9240673
2,1, 7,21, 0,19,30.00,40.00,SummerDesignDay
8,16.389760181474104
10,133339515.27084045
1645,0.0
1682,358237013.1513655
2,1, 7,21, 0,19,40.00,50.00,SummerDesignDay
8,16.283067654262039
10,133339515.27084045
1645,0.0
1682,338777253.2838997
2,1, 7,21, 0,19,50.00,60.00,SummerDesignDay
8,16.17595057957811
10,133339515.27084045
1645,0.0
1682,319322723.0190135
2,1, 7,21, 0,19, 0.00,60.00,SummerDesignDay
771,24.000000000000015
811,23.999999999999998
851,24.000000000000019
891,24.000000000000005
931,24.000000000000005
971,23.999999999999998
1011,24.00000000000001
1051,24.0
1091,24.0
1131,24.000000000000005
1171,24.00000000000001
1211,23.999999999999998
1251,24.000000000000015
1291,24.000000000000026
1331,24.00000000000001
1371,24.000000000000015
1411,24.0
1451,24.0
1491,23.999999999999987
1531,23.999999999999987
2,1, 7,21, 0,20, 0.00,10.00,SummerDesignDay
8,16.097123145563505
10,108947468.27458501
1645,0.0
1682,266665253.03403164
2,1, 7,21, 0,20,10.00,20.00,SummerDesignDay
8,16.018070242471564
10,108947468.27458501
1645,0.0
1682,250975215.17085368
2,1, 7,21, 0,20,20.00,30.00,SummerDesignDay
8,15.938779752340516
10,108947468.27458501
1645,0.0
1682,236007482.53290958
2,1, 7,21, 0,20,30.00,40.00,SummerDesignDay
8,15.85926152575189
10,108947468.27458501
1645,0.0
1682,220701154.40210326
2,1, 7,21, 0,20,40.00,50.00,SummerDesignDay
8,15.779503718563929
10,108947468.27458501
1645,0.0
1682,205075910.14829219
2,1, 7,21, 0,20,50.00,60.00,SummerDesignDay
8,15.699515709672767
10,108947468.27458501
1645,0.0
1682,189161638.46181748
2,1, 7,21, 0,20, 0.00,60.00,SummerDesignDay
771,24.000000000000005
811,23.999999999999998
851,24.000000000000019
891,23.999999999999998
931,24.00000000000001
971,25.280809574349495
1011,24.0
1051,24.0
1091,24.00000000000001
1131,23.999999999999998
1171,24.000000000000005
1211,24.00000000000003
1251,24.000000000000005
1291,23.999999999999998
1331,24.0
1371,24.00000000000001
1411,24.00000000000001
1451,24.00000000000001
1491,24.0
1531,24.0
2,1, 7,21, 0,21, 0.00,10.00,SummerDesignDay
8,15.63389147320404
10,106926235.09696238
1645,0.0
1682,173940784.9223971
2,1, 7,21, 0,21,10.00,20.00,SummerDesignDay
8,15.56810827419793
10,106926235.09696238
1645,0.0
1682,159994723.64221359
2,1, 7,21, 0,21,20.00,30.00,SummerDesignDay
8,15.502170882753524
10,106926235.09696238
1645,0.0
1682,146845054.0558617
2,1, 7,21, 0,21,30.00,40.00,SummerDesignDay
8,15.436068032613852
10,106926235.09696238
1645,0.0
1682,133275526.42788719
2,1, 7,21, 0,21,40.00,50.00,SummerDesignDay
8,15.369804371206009
10,106926235.09696238
1645,0.0
1682,121099638.83608179
2,1, 7,21, 0,21,50.00,60.00,SummerDesignDay
8,15.303384603594449
10,106926235.09696238
1645,0.0
1682,109389785.03492922
2,1, 7,21, 0,21, 0.00,60.00,SummerDesignDay
771,24.000000000000015
811,23.979086907707509
851,24.0
891,24.0
931,24.000000000000005
971,25.257717905626977
1011,24.0
1051,23.908319217988646
1091,24.00000000000001
1131,24.0
1171,24.00000000000001
1211,24.000000000000033
1251,24.000000000000015
1291,24.000000000000015
1331,24.000000000000005
1371,23.999999999999998
1411,23.999999999999998
1451,23.842221424085435
1491,24.000000000000015
1531,24.00000000000001
2,1, 7,21, 0,22, 0.00,10.00,SummerDesignDay