Program Version,EnergyPlus, Version 8.9.0-eba93e8e1b, YMD=2019.03.28 13:19
1,5,Environment Title[],Latitude[deg],Longitude[deg],Time Zone[],Elevation[m]
2,8,Day of Simulation[],Month[],Day of Month[],DST Indicator[1=yes 0=no],Hour[],StartMinute[],EndMinute[],DayType
3,5,Cumulative Day of Simulation[],Month[],Day of Month[],DST Indicator[1=yes 0=no],DayType  ! When Daily Report Variables Requested
4,2,Cumulative Days of Simulation[],Month[]  ! When Monthly Report Variables Requested
5,1,Cumulative Days of Simulation[] ! When Run Period Report Variables Requested
6,1,Calendar Year of Simulation[] ! When Annual Report Variables Requested
7,9,Environment,Site Outdoor Air Drybulb Temperature [C] !Monthly [Value,Min,Day,Hour,Minute,Max,Day,Hour,Minute]
8,1,Environment,Site Outdoor Air Wetbulb Temperature [C] !TimeStep
927,1,WAREHOUSE - FINE - REFRIGERATED-SPACE FUNCTION ZN,Zone Air Temperature [C] !Hourly
928,7,WAREHOUSE - FINE - REFRIGERATED-SPACE FUNCTION ZN,Zone Air Relative Humidity [%] !Daily [Value,Min,Hour,Minute,Max,Hour,Minute]
967,1,WAREHOUSE - FINE-SPACE FUNCTION ZN,Zone Air Temperature [C] !Hourly
968,7,WAREHOUSE - FINE-SPACE FUNCTION ZN,Zone Air Relative Humidity [%] !Daily [Value,Min,Hour,Minute,Max,Hour,Minute]
1007,1,WAREHOUSE - MED/BLK - REFRIGERATED-SPACE FUNCTION ZN,Zone Air Temperature [C] !Hourly
1008,7,WAREHOUSE - MED/BLK - REFRIGERATED-SPACE FUNCTION ZN,Zone Air Relative Humidity [%] !Daily [Value,Min,Hour,Minute,Max,Hour,Minute]
1047,1,WAREHOUSE - MED/BLK-SPACE FUNCTION ZN,Zone Air Temperature [C] !Hourly
1048,7,WAREHOUSE - MED/BLK-SPACE FUNCTION ZN,Zone Air Relative Humidity [%] !Daily [Value,Min,Hour,Minute,Max,Hour,Minute]
1087,1,WAREHOUSE - MED/BLK2 - REFRIGERATED-SPACE FUNCTION ZN,Zone Air Temperature [C] !Hourly
1088,7,WAREHOUSE - MED/BLK2 - REFRIGERATED-SPACE FUNCTION ZN,Zone Air Relative Humidity [%] !Daily [Value,Min,Hour,Minute,Max,Hour,Minute]
1127,1,WAREHOUSE - MED/BLK2-SPACE FUNCTION ZN,Zone Air Temperature [C] !Hourly
1128,7,WAREHOUSE - MED/BLK2-SPACE FUNCTION ZN,Zone Air Relative Humidity [%] !Daily [Value,Min,Hour,Minute,Max,Hour,Minute]
1167,1,WHOLEBUILDING-AUTOMOTIVE FACILITY 1 ZN,Zone Air Temperature [C] !Hourly
1168,7,WHOLEBUILDING-AUTOMOTIVE FACILITY 1 ZN,Zone Air Relative Humidity [%] !Daily [Value,Min,Hour,Minute,Max,Hour,Minute]
1207,1,WHOLEBUILDING-AUTOMOTIVE FACILITY 2 ZN,Zone Air Temperature [C] !Hourly
1208,7,WHOLEBUILDING-AUTOMOTIVE FACILITY 2 ZN,Zone Air Relative Humidity [%] !Daily [Value,Min,Hour,Minute,Max,Hour,Minute]
1247,1,WHOLEBUILDING-AUTOMOTIVE FACILITY 3 ZN,Zone Air Temperature [C] !Hourly
1248,7,WHOLEBUILDING-AUTOMOTIVE FACILITY 3 ZN,Zone Air Relative Humidity [%] !Daily [Value,Min,Hour,Minute,Max,Hour,Minute]
1287,1,WHOLEBUILDING-AUTOMOTIVE FACILITY 4 ZN,Zone Air Temperature [C] !Hourly
1288,7,WHOLEBUILDING-AUTOMOTIVE FACILITY 4 ZN,Zone Air Relative Humidity [%] !Daily [Value,Min,Hour,Minute,Max,Hour,Minute]
1327,1,WHOLEBUILDING-AUTOMOTIVE FACILITY 5 ZN,Zone Air Temperature [C] !Hourly
1328,7,WHOLEBUILDING-AUTOMOTIVE FACILITY 5 ZN,Zone Air Relative Humidity [%] !Daily [Value,Min,Hour,Minute,Max,Hour,Minute]
1367,1,WHOLEBUILDING-AUTOMOTIVE FACILITY 6 ZN,Zone Air Temperature [C] !Hourly
1368,7,WHOLEBUILDING-AUTOMOTIVE FACILITY 6 ZN,Zone Air Relative Humidity [%] !Daily [Value,Min,Hour,Minute,Max,Hour,Minute]
1407,1,WHOLEBUILDING-AUTOMOTIVE FACILITY ZN,Zone Air Temperature [C] !Hourly
1408,7,WHOLEBUILDING-AUTOMOTIVE FACILITY ZN,Zone Air Relative Humidity [%] !Daily [Value,Min,Hour,Minute,Max,Hour,Minute]
1447,1,WHOLEBUILDING-SPORTS ARENA ZN,Zone Air Temperature [C] !Hourly
1448,7,WHOLEBUILDING-SPORTS ARENA ZN,Zone Air Relative Humidity [%] !Daily [Value,Min,Hour,Minute,Max,Hour,Minute]
1487,1,WHOLEBUILDING-TOWN HALL ZN,Zone Air Temperature [C] !Hourly
1488,7,WHOLEBUILDING-TOWN HALL ZN,Zone Air Relative Humidity [%] !Daily [Value,Min,Hour,Minute,Max,Hour,Minute]
1527,1,WHOLEBUILDING-TRANSPORTATION ZN,Zone Air Temperature [C] !Hourly
1528,7,WHOLEBUILDING-TRANSPORTATION ZN,Zone Air Relative Humidity [%] !Daily [Value,Min,Hour,Minute,Max,Hour,Minute]
1567,1,WHOLEBUILDING-WAREHOUSE - REFRIGERATED ZN,Zone Air Temperature [C] !Hourly
1568,7,WHOLEBUILDING-WAREHOUSE - REFRIGERATED ZN,Zone Air Relative Humidity [%] !Daily [Value,Min,Hour,Minute,Max,Hour,Minute]
1607,1,WHOLEBUILDING-WAREHOUSE ZN,Zone Air Temperature [C] !Hourly
1608,7,WHOLEBUILDING-WAREHOUSE ZN,Zone Air Relative Humidity [%] !Daily [Value,Min,Hour,Minute,Max,Hour,Minute]
1647,1,WHOLEBUILDING-WORKSHOP ZN,Zone Air Temperature [C] !Hourly
1648,7,WHOLEBUILDING-WORKSHOP ZN,Zone Air Relative Humidity [%] !Daily [Value,Min,Hour,Minute,Max,Hour,Minute]
1687,1,WORKSHOP SPACE-SPACE FUNCTION ZN,Zone Air Temperature [C] !Hourly
1688,7,WORKSHOP SPACE-SPACE FUNCTION ZN,Zone Air Relative Humidity [%] !Daily [Value,Min,Hour,Minute,Max,Hour,Minute]
10,1,Electricity:Facility [J] !TimeStep
1838,1,DistrictCooling:Facility [J] !TimeStep
1801,1,DistrictHeating:Facility [J] !TimeStep
End of Data Dictionary
1,FORT MCMURRAY AP ANN CLG .4% CONDNS DB=>MWB,  56.65,-111.22,  -7.00, 369.10
2,1, 7,21, 0, 1, 0.00,10.00,SummerDesignDay
8,14.218136923962174
10,38118432.767041329
1801,0.0
1838,29500445.020594337
2,1, 7,21, 0, 1,10.00,20.00,SummerDesignDay
8,14.171982153293495
10,38118432.767041329
1801,0.0
1838,29037057.932387368
2,1, 7,21, 0, 1,20.00,30.00,SummerDesignDay
8,14.125744780286427
10,38118432.767041329
1801,0.0
1838,28580069.351973464
2,1, 7,21, 0, 1,30.00,40.00,SummerDesignDay
8,14.079436086331978
10,38118432.767041329
1801,0.0
1838,28126921.282307544
2,1, 7,21, 0, 1,40.00,50.00,SummerDesignDay
8,14.033050387896898
10,38118432.767041329
1801,0.0
1838,27679341.554555604
2,1, 7,21, 0, 1,50.00,60.00,SummerDesignDay
8,13.986581233564835
10,38118432.767041329
1801,0.0
1838,27236686.119480496
2,1, 7,21, 0, 1, 0.00,60.00,SummerDesignDay
927,25.360861984027044
967,24.300508994560688
1007,24.76257846221539
1047,23.524100800946628
1087,23.878889261795064
1127,26.03255328067142
1167,23.73137397583182
1207,22.85631730488181
1247,22.84836744985833
1287,22.56727930273855
1327,22.178956750615965
1367,23.530787095734678
1407,23.08359809211366
1447,24.000000000000026
1487,24.704163505992616
1527,24.000000000000044
1567,24.814449723188898
1607,23.78888799310339
1647,23.4269387313004
1687,22.81257385366349
2,1, 7,21, 0, 2, 0.00,10.00,SummerDesignDay
8,13.95555882260429
10,33888467.971486728
1801,0.0
1838,15867565.366186874
2,1, 7,21, 0, 2,10.00,20.00,SummerDesignDay
8,13.924507755336454
10,33888467.971486728
1801,0.0
1838,15709503.167510819
2,1, 7,21, 0, 2,20.00,30.00,SummerDesignDay
8,13.893416042989206
10,33888467.971486728
1801,0.0
1838,15550601.786643755
2,1, 7,21, 0, 2,30.00,40.00,SummerDesignDay
8,13.862289589689029
10,33888467.971486728
1801,0.0
1838,15391049.413572079
2,1, 7,21, 0, 2,40.00,50.00,SummerDesignDay
8,13.831134407608739
10,33888467.971486728
1801,0.0
1838,15230994.067307638
2,1, 7,21, 0, 2,50.00,60.00,SummerDesignDay
8,13.799938415548118
10,33888467.971486728
1801,0.0
1838,15070503.685245032
2,1, 7,21, 0, 2, 0.00,60.00,SummerDesignDay
927,25.153532150007555
967,23.965471442733358
1007,24.57651020282059
1047,23.181801896984966
1087,23.545792490613267
1127,25.821587428939766
1167,23.438248554738907
1207,22.595556979619916
1247,22.575249678530029
1287,22.296800969990576
1327,21.788072375223096
1367,23.26779236479135
1407,22.846275451221094
1447,24.677933456880557
1487,24.546540111484139
1527,24.000000000000019
1567,24.65936530367003
1607,23.464433400237323
1647,23.16692810403894
1687,22.47168491803413
2,1, 7,21, 0, 3, 0.00,10.00,SummerDesignDay
8,13.776521671948676
10,29658503.175932144
1801,0.0
1838,14926326.849431768
2,1, 7,21, 0, 3,10.00,20.00,SummerDesignDay
8,13.753085235778466
10,29658503.175932144
1801,0.0
1838,14781747.865979558
2,1, 7,21, 0, 3,20.00,30.00,SummerDesignDay
8,13.729636002354969
10,29658503.175932144
1801,0.0
1838,14636866.03947015
2,1, 7,21, 0, 3,30.00,40.00,SummerDesignDay
8,13.706147375533054
10,29658503.175932144
1801,0.0
1838,14491764.181453703
2,1, 7,21, 0, 3,40.00,50.00,SummerDesignDay
8,13.682651961920304
10,29658503.175932144
1801,0.0
1838,14346484.105244918
2,1, 7,21, 0, 3,50.00,60.00,SummerDesignDay
8,13.659136670643687
10,29658503.175932144
1801,0.0
1838,14201053.111264186
2,1, 7,21, 0, 3, 0.00,60.00,SummerDesignDay
927,24.963800413230975
967,23.679245280706085
1007,24.40527297140864
1047,22.88689177225817
1087,23.2639670060159
1127,25.629672213469506
1167,23.193042256056985
1207,22.388299356698118
1247,22.354463938881378
1287,22.081231554892474
1327,21.47690630601166
1367,23.051904153089244
1407,22.65530564090366
1447,24.398927977249995
1487,24.39341186645697
1527,24.00000000000004
1567,24.52272811748497
1607,23.187263838181129
1647,22.960773243687656
1687,22.205780196597716
2,1, 7,21, 0, 4, 0.00,10.00,SummerDesignDay
8,13.63560137410855
10,29658503.175932144
1801,0.0
1838,14055492.242766258
2,1, 7,21, 0, 4,10.00,20.00,SummerDesignDay
8,13.612040802606578
10,29658503.175932144
1801,0.0
1838,13909778.702446968
2,1, 7,21, 0, 4,20.00,30.00,SummerDesignDay
8,13.58846620506876
10,29658503.175932144
1801,0.0
1838,13764044.61817286
2,1, 7,21, 0, 4,30.00,40.00,SummerDesignDay
8,13.56487178447336
10,29658503.175932144
1801,0.0
1838,13618153.207443743
2,1, 7,21, 0, 4,40.00,50.00,SummerDesignDay
8,13.541257354069103
10,29658503.175932144
1801,0.0
1838,13472115.133289837
2,1, 7,21, 0, 4,50.00,60.00,SummerDesignDay
8,13.517617463812285
10,29658503.175932144
1801,0.0
1838,13325929.744630998
2,1, 7,21, 0, 4, 0.00,60.00,SummerDesignDay
927,24.777650872420268
967,23.42348252687168
1007,24.23644688897402
1047,22.621965686349783
1087,23.008564872292184
1127,25.44611417666209
1167,22.964038026766884
1207,22.204043317206354
1247,22.155971157416844
1287,21.88937732090768
1327,21.20777912800914
1367,22.85391791389961
1407,22.481363605852669
1447,24.075409616608878
1487,24.245415965132808
1527,24.00000000000004
1567,24.390516315647319
1607,22.939918982514425
1647,22.777160256475697
1687,21.97142957903803
2,1, 7,21, 0, 5, 0.00,10.00,SummerDesignDay
8,13.50185415824011
10,29658503.175932144
1801,0.0
1838,13196333.571359154
2,1, 7,21, 0, 5,10.00,20.00,SummerDesignDay
8,13.486076034032447
10,29658503.175932144
1801,0.0
1838,13106891.600578037
2,1, 7,21, 0, 5,20.00,30.00,SummerDesignDay
8,13.470289340350983
10,29658503.175932144
1801,0.0
1838,13004368.061554844
2,1, 7,21, 0, 5,30.00,40.00,SummerDesignDay
8,13.454493322631063
10,29658503.175932144
1801,0.0
1838,12902177.26280949
2,1, 7,21, 0, 5,40.00,50.00,SummerDesignDay
8,13.438688835118548
10,29658503.175932144
1801,0.0
1838,12800721.77782051
2,1, 7,21, 0, 5,50.00,60.00,SummerDesignDay
8,13.422888173889437
10,29658503.175932144
1801,0.0
1838,12700163.053833358
2,1, 7,21, 0, 5, 0.00,60.00,SummerDesignDay
927,24.602135681583744
967,23.256154575587418
1007,24.070822125277816
1047,22.575643540894906
1087,23.055736542982375
1127,25.274909457204545
1167,22.81263400329874
1207,22.034188794023547
1247,21.971014069339288
1287,21.711831100149408
1327,21.015095904851724
1367,22.674008404943974
1407,22.318266649043353
1447,23.978254979173287
1487,24.16768926655368
1527,24.00000000000001
1567,24.367802923536375
1607,22.780126877899009
1647,22.607116269311108
1687,21.75910191991987
2,1, 7,21, 0, 6, 0.00,10.00,SummerDesignDay
8,13.438688835118548
10,29658503.175932144
1801,0.0
1838,12678883.171250776
2,1, 7,21, 0, 6,10.00,20.00,SummerDesignDay
8,13.454493322631063
10,29658503.175932144
1801,0.0
1838,12651131.923306702
2,1, 7,21, 0, 6,20.00,30.00,SummerDesignDay
8,13.470289340350983
10,29658503.175932144
1801,0.0
1838,12621350.975844898
2,1, 7,21, 0, 6,30.00,40.00,SummerDesignDay
8,13.486076034032447
10,29658503.175932144
1801,0.0
1838,12591915.857746903
2,1, 7,21, 0, 6,40.00,50.00,SummerDesignDay
8,13.50185415824011
10,29658503.175932144
1801,0.0
1838,12562923.341255907
2,1, 7,21, 0, 6,50.00,60.00,SummerDesignDay
8,13.517617463812285
10,29658503.175932144
1801,0.0
1838,12534495.998694083
2,1, 7,21, 0, 6, 0.00,60.00,SummerDesignDay
927,24.48278507864886
967,23.394008330937287
1007,23.94046830972921
1047,23.007072813591994
1087,24.27352788602475
1127,25.158099191018775
1167,22.797359749242646
1207,21.94712741853804
1247,21.857472639454483
1287,21.606799800490874
1327,21.10599215743522
1367,22.58236547888072
1407,22.228819755021168
1447,24.340606265041463
1487,24.193247417102879
1527,24.000000000000019
1567,24.78620812441549
1607,22.9327934155837
1647,22.511085165222288
1687,21.65045676406095
2,1, 7,21, 0, 7, 0.00,10.00,SummerDesignDay
8,13.572736920571789
10,29658503.175932144
1801,0.0
1838,81734537.22623888
2,1, 7,21, 0, 7,10.00,20.00,SummerDesignDay
8,13.627748229152554
10,29658503.175932144
1801,0.0
1838,33229639.8962041
2,1, 7,21, 0, 7,20.00,30.00,SummerDesignDay
8,13.682651961920304
10,29658503.175932144
1801,0.0
1838,66592490.25263524
2,1, 7,21, 0, 7,30.00,40.00,SummerDesignDay
8,13.737448093244995
10,29658503.175932144
1801,0.0
1838,42043730.9788839
2,1, 7,21, 0, 7,40.00,50.00,SummerDesignDay
8,13.792137011831216
10,29658503.175932144
1801,0.0
1838,45929538.65164767
2,1, 7,21, 0, 7,50.00,60.00,SummerDesignDay
8,13.846719282840333
10,29658503.175932144
1801,0.0
1838,51103143.88593991
2,1, 7,21, 0, 7, 0.00,60.00,SummerDesignDay
927,23.973599157743324
967,23.794140414320677
1007,23.889268980577368
1047,23.35019964114667
1087,23.981095643013594
1127,23.947557630475033
1167,22.807375617739443
1207,22.033373889366108
1247,21.895516634708448
1287,21.65467368422424
1327,21.541737986481818
1367,22.63785354607786
1407,22.280973101661158
1447,24.84183027441065
1487,24.139032287214638
1527,24.00000000000003
1567,23.95862875898607
1607,23.386522206354
1647,22.56403011471281
1687,21.74749072067505
2,1, 7,21, 0, 8, 0.00,10.00,SummerDesignDay
8,13.978831900527043
10,60951992.74332148
1801,0.0
1838,64594040.00862491
2,1, 7,21, 0, 8,10.00,20.00,SummerDesignDay
8,14.110321014287419
10,60951992.74332148
1801,0.0
1838,72365982.87941347
2,1, 7,21, 0, 8,20.00,30.00,SummerDesignDay
8,14.241191509616986
10,60951992.74332148
1801,0.0
1838,84382362.06565248
2,1, 7,21, 0, 8,30.00,40.00,SummerDesignDay
8,14.371447531304272
10,60951992.74332148
1801,0.0
1838,87693786.70627073
2,1, 7,21, 0, 8,40.00,50.00,SummerDesignDay
8,14.501093766564925
10,60951992.74332148
1801,0.0
1838,94808363.84467094
2,1, 7,21, 0, 8,50.00,60.00,SummerDesignDay
8,14.630134792273804
10,60951992.74332148
1801,0.0
1838,101008696.4225957
2,1, 7,21, 0, 8, 0.00,60.00,SummerDesignDay
927,23.999999999999976
967,23.9999990436562
1007,23.987855267475085
1047,23.965890041366185
1087,23.999999999983947
1127,23.999999999998854
1167,23.099238474830753
1207,22.39984439274129
1247,22.194929212998408
1287,21.971069333622429
1327,22.638492661866669
1367,22.9410702583146
1407,22.574587689749849
1447,25.497503517426876
1487,23.99855476757762
1527,24.00000000000004
1567,23.999999999996239
1607,23.991536156250804
1647,23.228483946746136
1687,22.577712566605148
2,1, 7,21, 0, 9, 0.00,10.00,SummerDesignDay
8,14.773641492809972
10,181464739.78838606
1801,0.0
1838,175678854.10363949
2,1, 7,21, 0, 9,10.00,20.00,SummerDesignDay
8,14.91640948124148
10,181464739.78838606
1801,0.0
1838,175283877.40303145
2,1, 7,21, 0, 9,20.00,30.00,SummerDesignDay
8,15.05843890714102
10,181464739.78838606
1801,0.0
1838,214656918.2698684
2,1, 7,21, 0, 9,30.00,40.00,SummerDesignDay
8,15.199735893563798
10,181464739.78838606
1801,0.0
1838,225401506.6789194
2,1, 7,21, 0, 9,40.00,50.00,SummerDesignDay
8,15.340306256439395
10,181464739.78838606
1801,0.0
1838,239881794.97753588
2,1, 7,21, 0, 9,50.00,60.00,SummerDesignDay
8,15.48015101768072
10,181464739.78838606
1801,0.0
1838,253578916.5553733
2,1, 7,21, 0, 9, 0.00,60.00,SummerDesignDay
927,24.00000000000001
967,24.000000000000015
1007,23.999999999999955
1047,23.99999999999837
1087,24.000000000000019
1127,24.000000000000019
1167,23.856873896928354
1207,23.437431998547458
1247,23.191359435312877
1287,22.988729116886799
1327,23.925964059123193
1367,23.76922768640557
1407,23.490340091527558
1447,23.944842583960154
1487,23.999999999998694
1527,24.000000000000005
1567,24.000000000000026
1607,23.99999999999896
1647,23.983875191138496
1687,23.88727630885671
2,1, 7,21, 0,10, 0.00,10.00,SummerDesignDay
8,15.60467292907716
10,249129176.64561896
1801,0.0
1838,321872964.2760698
2,1, 7,21, 0,10,10.00,20.00,SummerDesignDay
8,15.72862731650033
10,249129176.64561896
1801,0.0
1838,351187765.2890393
2,1, 7,21, 0,10,20.00,30.00,SummerDesignDay
8,15.852017409284228
10,249129176.64561896
1801,0.0
1838,372589801.48560538
2,1, 7,21, 0,10,30.00,40.00,SummerDesignDay
8,15.974848118364367
10,249129176.64561896
1801,0.0
1838,384972318.6632035
2,1, 7,21, 0,10,40.00,50.00,SummerDesignDay
8,16.097123145563505
10,249129176.64561896
1801,0.0
1838,400605973.72821179
2,1, 7,21, 0,10,50.00,60.00,SummerDesignDay
8,16.218846351168599
10,249129176.64561896
1801,0.0
1838,414556793.31026
2,1, 7,21, 0,10, 0.00,60.00,SummerDesignDay
927,23.999999999999998
967,24.0
1007,24.0
1047,24.000000000000055
1087,24.00000000000007
1127,24.000000000000019
1167,23.99999987287605
1207,23.999947620182295
1247,23.98929239724728
1287,23.970005055918575
1327,23.99999999889735
1367,23.99999957279617
1407,23.999948488136189
1447,23.99999999996709
1487,24.00000000000001
1527,24.00000000000001
1567,24.00000000000003
1607,23.999999999999987
1647,23.999999999983758
1687,23.999999966429969
2,1, 7,21, 0,11, 0.00,10.00,SummerDesignDay
8,16.325793027093189
10,276083952.31173279
1801,0.0
1838,446830757.76476189
2,1, 7,21, 0,11,10.00,20.00,SummerDesignDay
8,16.432322158488288
10,276083952.31173279
1801,0.0
1838,459252971.3262836
2,1, 7,21, 0,11,20.00,30.00,SummerDesignDay
8,16.538424180249178
10,276083952.31173279
1801,0.0
1838,470573175.265581
2,1, 7,21, 0,11,30.00,40.00,SummerDesignDay
8,16.644108396469087
10,276083952.31173279
1801,0.0
1838,481698557.9721313
2,1, 7,21, 0,11,40.00,50.00,SummerDesignDay
8,16.749376736593655
10,276083952.31173279
1801,0.0
1838,492642356.3587716
2,1, 7,21, 0,11,50.00,60.00,SummerDesignDay
8,16.854232613237156
10,276083952.31173279
1801,0.0
1838,503466587.60811939
2,1, 7,21, 0,11, 0.00,60.00,SummerDesignDay
927,24.000000000000019
967,24.0
1007,24.000000000000015
1047,24.000000000000033
1087,24.000000000000069
1127,24.000000000000033
1167,24.000000000000026
1207,23.99999999999896
1247,23.999999999743087
1287,23.99999999732857
1327,24.0
1367,23.999999999999984
1407,23.999999999998797
1447,24.000000000000044
1487,24.00000000000001
1527,24.00000000000003
1567,24.00000000000001
1607,24.000000000000047
1647,24.000000000000026
1687,24.00000000000001
2,1, 7,21, 0,12, 0.00,10.00,SummerDesignDay
8,16.92390823520069
10,278198934.7095101
1801,0.0
1838,514466894.62891617
2,1, 7,21, 0,12,10.00,20.00,SummerDesignDay
8,16.99340178950456
10,278198934.7095101
1801,0.0
1838,522892389.41205206
2,1, 7,21, 0,12,20.00,30.00,SummerDesignDay
8,17.06272006743463
10,278198934.7095101
1801,0.0
1838,531262319.20656207
2,1, 7,21, 0,12,30.00,40.00,SummerDesignDay
8,17.131853229172639
10,278198934.7095101
1801,0.0
1838,539587891.0196929
2,1, 7,21, 0,12,40.00,50.00,SummerDesignDay
8,17.200807172194087
10,278198934.7095101
1801,0.0
1838,547855571.9554278
2,1, 7,21, 0,12,50.00,60.00,SummerDesignDay
8,17.269582116758607
10,278198934.7095101
1801,0.0
1838,555980596.0027554
2,1, 7,21, 0,12, 0.00,60.00,SummerDesignDay
927,24.000000000000005
967,24.00000000000004
1007,24.000000000000005
1047,24.000000000000055
1087,23.999999999999984
1127,23.99999999999999
1167,24.00000000000003
1207,24.00000000000001
1247,24.00000000000001
1287,23.999999999999998
1327,24.0
1367,24.000000000000058
1407,24.00000000000001
1447,24.000000000000019
1487,24.000000000000019
1527,24.00000000000001
1567,24.000000000000015
1607,24.000000000000033
1647,24.00000000000004
1687,24.0
2,1, 7,21, 0,13, 0.00,10.00,SummerDesignDay
8,17.32447360221357
10,278198934.7095101
1801,0.0
1838,561377714.951396
2,1, 7,21, 0,13,10.00,20.00,SummerDesignDay
8,17.379251291230806
10,278198934.7095101
1801,0.0
1838,567834670.0707963
2,1, 7,21, 0,13,20.00,30.00,SummerDesignDay
8,17.433921312061729
10,278198934.7095101
1801,0.0
1838,574037695.489723
2,1, 7,21, 0,13,30.00,40.00,SummerDesignDay
8,17.488473222557489
10,278198934.7095101
1801,0.0
1838,580174166.6072532
2,1, 7,21, 0,13,40.00,50.00,SummerDesignDay
8,17.542913447755134
10,278198934.7095101
1801,0.0
1838,586140861.3722329
2,1, 7,21, 0,13,50.00,60.00,SummerDesignDay
8,17.59724609886134
10,278198934.7095101
1801,0.0
1838,591865647.0359427
2,1, 7,21, 0,13, 0.00,60.00,SummerDesignDay
927,24.000000000000047
967,24.00000000000004
1007,24.0
1047,24.0
1087,24.00000000000004
1127,24.00000000000003
1167,24.000000000000019
1207,24.000000000000015
1247,24.000000000000005
1287,24.000000000000015
1327,24.000000000000026
1367,24.00000000000004
1407,24.000000000000019
1447,24.00000000000003
1487,24.00000000000001
1527,24.000000000000019
1567,24.000000000000019
1607,24.00000000000009
1647,24.000000000000019
1687,24.00000000000001
2,1, 7,21, 0,14, 0.00,10.00,SummerDesignDay
8,17.6311450462694
10,278198934.7095101
1801,0.0
1838,595115771.5215494
2,1, 7,21, 0,14,10.00,20.00,SummerDesignDay
8,17.665000449016245
10,278198934.7095101
1801,0.0
1838,598883422.8686979
2,1, 7,21, 0,14,20.00,30.00,SummerDesignDay
8,17.698812743128934
10,278198934.7095101
1801,0.0
1838,602589259.7797519
2,1, 7,21, 0,14,30.00,40.00,SummerDesignDay
8,17.732582050940107
10,278198934.7095101
1801,0.0
1838,606291671.9702896
2,1, 7,21, 0,14,40.00,50.00,SummerDesignDay
8,17.766307345121004
10,278198934.7095101
1801,0.0
1838,610007451.9770625
2,1, 7,21, 0,14,50.00,60.00,SummerDesignDay
8,17.79999023167558
10,278198934.7095101
1801,0.0
1838,613739633.7578715
2,1, 7,21, 0,14, 0.00,60.00,SummerDesignDay
927,24.00000000000004
967,24.0
1007,24.0
1047,24.000000000000019
1087,23.999999999999984
1127,24.000000000000019
1167,24.0
1207,24.000000000000005
1247,24.000000000000005
1287,24.00000000000001
1327,23.99999999999996
1367,24.000000000000026
1407,24.00000000000001
1447,24.000000000000019
1487,24.00000000000001
1527,24.000000000000019
1567,24.00000000000001
1607,24.00000000000003
1647,24.00000000000003
1687,24.000000000000015
2,1, 7,21, 0,15, 0.00,10.00,SummerDesignDay
8,17.79999023167558
10,278198934.7095101
1801,0.0
1838,606488698.5828509
2,1, 7,21, 0,15,10.00,20.00,SummerDesignDay
8,17.79999023167558
10,278198934.7095101
1801,0.0
1838,607497500.6943815
2,1, 7,21, 0,15,20.00,30.00,SummerDesignDay
8,17.79999023167558
10,278198934.7095101
1801,0.0
1838,608545884.108169
2,1, 7,21, 0,15,30.00,40.00,SummerDesignDay
8,17.79999023167558
10,278198934.7095101
1801,0.0
1838,609422347.5851976
2,1, 7,21, 0,15,40.00,50.00,SummerDesignDay
8,17.79999023167558
10,278198934.7095101
1801,0.0
1838,610052436.0790167
2,1, 7,21, 0,15,50.00,60.00,SummerDesignDay
8,17.79999023167558
10,278198934.7095101
1801,0.0
1838,610373926.715834
2,1, 7,21, 0,15, 0.00,60.00,SummerDesignDay
927,24.00000000000004
967,23.999999999999934
1007,24.0
1047,24.000000000000019
1087,23.999999999999944
1127,24.000000000000026
1167,24.00000000000003
1207,24.000000000000026
1247,24.000000000000015
1287,24.0
1327,23.999999999999984
1367,24.000000000000033
1407,24.0
1447,24.000000000000026
1487,24.0
1527,23.999999999999984
1567,24.00000000000001
1607,24.0
1647,24.00000000000001
1687,23.99999999999997
2,1, 7,21, 0,16, 0.00,10.00,SummerDesignDay
8,17.759562446305357
10,278198934.7095101
1801,0.0
1838,615146521.2396964
2,1, 7,21, 0,16,10.00,20.00,SummerDesignDay
8,17.71907809634183
10,278198934.7095101
1801,0.0
1838,612065441.845882
2,1, 7,21, 0,16,20.00,30.00,SummerDesignDay
8,17.67853788661001
10,278198934.7095101
1801,0.0
1838,608368428.4345583
2,1, 7,21, 0,16,30.00,40.00,SummerDesignDay
8,17.63791796367351
10,278198934.7095101
1801,0.0
1838,604250736.3044797
2,1, 7,21, 0,16,40.00,50.00,SummerDesignDay
8,17.59724609886134
10,278198934.7095101
1801,0.0
1838,599779766.578894
2,1, 7,21, 0,16,50.00,60.00,SummerDesignDay
8,17.55650676726033
10,278198934.7095101
1801,0.0
1838,595000291.2555149
2,1, 7,21, 0,16, 0.00,60.00,SummerDesignDay
927,24.000000000000015
967,24.000000000000015
1007,24.00000000000001
1047,24.0
1087,23.999999999999984
1127,24.00000000000004
1167,24.00000000000001
1207,24.000000000000015
1247,24.000000000000015
1287,24.000000000000015
1327,24.00000000000004
1367,24.000000000000033
1407,24.00000000000004
1447,24.000000000000044
1487,24.00000000000001
1527,24.0
1567,24.000000000000005
1607,24.000000000000015
1647,23.999999999999984
1687,24.00000000000004
2,1, 7,21, 0,17, 0.00,10.00,SummerDesignDay
8,17.50209486331892
10,274283967.29348149
1801,0.0
1838,583662229.8479818
2,1, 7,21, 0,17,10.00,20.00,SummerDesignDay
8,17.447570789624618
10,274283967.29348149
1801,0.0
1838,577136518.09547
2,1, 7,21, 0,17,20.00,30.00,SummerDesignDay
8,17.392929544208135
10,274283967.29348149
1801,0.0
1838,570552014.5405779
2,1, 7,21, 0,17,30.00,40.00,SummerDesignDay
8,17.33818013976614
10,274283967.29348149
1801,0.0
1838,563826639.2419751
2,1, 7,21, 0,17,40.00,50.00,SummerDesignDay
8,17.283317298559309
10,274283967.29348149
1801,0.0
1838,556971151.1338532
2,1, 7,21, 0,17,50.00,60.00,SummerDesignDay
8,17.22833552437677
10,274283967.29348149
1801,0.0
1838,549974889.1605641
2,1, 7,21, 0,17, 0.00,60.00,SummerDesignDay
927,24.0
967,24.000000000000019
1007,24.000000000000005
1047,24.000000000000005
1087,23.999999999999987
1127,24.000000000000015
1167,24.000000000000005
1207,24.000000000000026
1247,24.00000000000001
1287,23.999999999999998
1327,24.000000000000026
1367,24.00000000000003
1407,24.00000000000001
1447,24.00000000000001
1487,24.00000000000001
1527,23.999999999999987
1567,24.000000000000019
1607,24.000000000000047
1647,24.00000000000001
1687,24.000000000000015
2,1, 7,21, 0,18, 0.00,10.00,SummerDesignDay
8,17.159453019160176
10,259126593.4399187
1801,0.0
1838,532528031.3165161
2,1, 7,21, 0,18,10.00,20.00,SummerDesignDay
8,17.090391773337136
10,259126593.4399187
1801,0.0
1838,523278324.22661116
2,1, 7,21, 0,18,20.00,30.00,SummerDesignDay
8,17.021151077964786
10,259126593.4399187
1801,0.0
1838,514382967.90196117
2,1, 7,21, 0,18,30.00,40.00,SummerDesignDay
8,16.951729380464653
10,259126593.4399187
1801,0.0
1838,505545495.59509208
2,1, 7,21, 0,18,40.00,50.00,SummerDesignDay
8,16.882126503829249
10,259126593.4399187
1801,0.0
1838,496808204.4229539
2,1, 7,21, 0,18,50.00,60.00,SummerDesignDay
8,16.812341807494034
10,259126593.4399187
1801,0.0
1838,488129266.05426278
2,1, 7,21, 0,18, 0.00,60.00,SummerDesignDay
927,23.99999999999999
967,24.000000000000026
1007,24.000000000000005
1047,24.000000000000019
1087,24.00000000000004
1127,24.000000000000015
1167,24.000000000000026
1207,24.0
1247,24.000000000000015
1287,24.000000000000005
1327,23.999999999999984
1367,24.0
1407,24.000000000000005
1447,24.000000000000033
1487,24.0
1527,24.0
1567,24.00000000000001
1607,24.0
1647,24.0
1687,24.000000000000047
2,1, 7,21, 0,19, 0.00,10.00,SummerDesignDay
8,16.707321072823203
10,150549997.0622598
1801,0.0
1838,406129808.1873524
2,1, 7,21, 0,19,10.00,20.00,SummerDesignDay
8,16.601881826644556
10,150549997.0622598
1801,0.0
1838,389761119.3025755
2,1, 7,21, 0,19,20.00,30.00,SummerDesignDay
8,16.496030555252849
10,150549997.0622598
1801,0.0
1838,376461076.6218256
2,1, 7,21, 0,19,30.00,40.00,SummerDesignDay
8,16.389760181474104
10,150549997.0622598
1801,0.0
1838,363389763.5388847
2,1, 7,21, 0,19,40.00,50.00,SummerDesignDay
8,16.283067654262039
10,150549997.0622598
1801,0.0
1838,350736395.10707649
2,1, 7,21, 0,19,50.00,60.00,SummerDesignDay
8,16.17595057957811
10,150549997.0622598
1801,0.0
1838,338059092.4644742
2,1, 7,21, 0,19, 0.00,60.00,SummerDesignDay
927,24.00000000000001
967,24.0
1007,24.000000000000019
1047,23.999999999999998
1087,24.000000000000015
1127,24.00000000000003
1167,24.000000000000026
1207,24.000000000000005
1247,24.0
1287,24.0
1327,24.000000000000033
1367,23.999999999999998
1407,23.999999999999987
1447,24.000000000000033
1487,24.00000000000003
1527,24.000000000000015
1567,24.00000000000001
1607,24.00000000000001
1647,24.000000000000026
1687,24.0
2,1, 7,21, 0,20, 0.00,10.00,SummerDesignDay
8,16.097123145563505
10,82135566.43652357
1801,0.0
1838,219172573.77407984
2,1, 7,21, 0,20,10.00,20.00,SummerDesignDay
8,16.018070242471564
10,82135566.43652357
1801,0.0
1838,211660169.47287245
2,1, 7,21, 0,20,20.00,30.00,SummerDesignDay
8,15.938779752340516
10,82135566.43652357
1801,0.0
1838,205253991.3473301
2,1, 7,21, 0,20,30.00,40.00,SummerDesignDay
8,15.85926152575189
10,82135566.43652357
1801,0.0
1838,198750581.8099231
2,1, 7,21, 0,20,40.00,50.00,SummerDesignDay
8,15.779503718563929
10,82135566.43652357
1801,0.0
1838,192127127.8410547
2,1, 7,21, 0,20,50.00,60.00,SummerDesignDay
8,15.699515709672767
10,82135566.43652357
1801,0.0
1838,185289841.25388149
2,1, 7,21, 0,20, 0.00,60.00,SummerDesignDay
927,24.0
967,24.000000000000019
1007,24.00000000000001
1047,24.000000000000015
1087,24.00000000000001
1127,24.000000000000026
1167,25.219561660241778
1207,24.447058912306689
1247,24.442774795722554
1287,24.2610295128671
1327,24.7574282361729
1367,24.954949436091355
1407,24.51258338519126
1447,24.00000000000003
1487,24.000000000000019
1527,24.000000000000015
1567,24.000000000000005
1607,23.999999999999998
1647,24.000000000000005
1687,24.00000000000001
2,1, 7,21, 0,21, 0.00,10.00,SummerDesignDay
8,15.63389147320404
10,82135566.43652357
1801,0.0
1838,178772433.63856209
2,1, 7,21, 0,21,10.00,20.00,SummerDesignDay
8,15.56810827419793
10,82135566.43652357
1801,0.0
1838,171801978.98492498
2,1, 7,21, 0,21,20.00,30.00,SummerDesignDay
8,15.502170882753524
10,82135566.43652357
1801,0.0
1838,164701388.22485174
2,1, 7,21, 0,21,30.00,40.00,SummerDesignDay
8,15.436068032613852
10,82135566.43652357
1801,0.0
1838,157638994.17227788
2,1, 7,21, 0,21,40.00,50.00,SummerDesignDay
8,15.369804371206009
10,82135566.43652357
1801,0.0
1838,151159412.80949883
2,1, 7,21, 0,21,50.00,60.00,SummerDesignDay
8,15.303384603594449
10,82135566.43652357
1801,0.0
1838,144397100.56931345
2,1, 7,21, 0,21, 0.00,60.00,SummerDesignDay
927,24.000000000000015
967,24.00000000000001
1007,24.00000000000001