Program Version,EnergyPlus, Version 8.9.0-eba93e8e1b, YMD=2019.03.19 18:39
1,5,Environment Title[],Latitude[deg],Longitude[deg],Time Zone[],Elevation[m]
2,8,Day of Simulation[],Month[],Day of Month[],DST Indicator[1=yes 0=no],Hour[],StartMinute[],EndMinute[],DayType
3,5,Cumulative Day of Simulation[],Month[],Day of Month[],DST Indicator[1=yes 0=no],DayType  ! When Daily Report Variables Requested
4,2,Cumulative Days of Simulation[],Month[]  ! When Monthly Report Variables Requested
5,1,Cumulative Days of Simulation[] ! When Run Period Report Variables Requested
6,1,Calendar Year of Simulation[] ! When Annual Report Variables Requested
7,9,Environment,Site Outdoor Air Drybulb Temperature [C] !Monthly [Value,Min,Day,Hour,Minute,Max,Day,Hour,Minute]
8,1,Environment,Site Outdoor Air Wetbulb Temperature [C] !TimeStep
1073,1,ALL_ST=GYM - FITNESS_FL=STORY 4_SCH=B,Zone Air Temperature [C] !Hourly
1074,7,ALL_ST=GYM - FITNESS_FL=STORY 4_SCH=B,Zone Air Relative Humidity [%] !Daily [Value,Min,Hour,Minute,Max,Hour,Minute]
1113,1,ALL_ST=GYM - PLAY_FL=STORY 4_SCH=B,Zone Air Temperature [C] !Hourly
1114,7,ALL_ST=GYM - PLAY_FL=STORY 4_SCH=B,Zone Air Relative Humidity [%] !Daily [Value,Min,Hour,Minute,Max,Hour,Minute]
1153,1,ALL_ST=HOSPITAL - EMERGENCY_FL=STORY 4_SCH=H,Zone Air Temperature [C] !Hourly
1154,7,ALL_ST=HOSPITAL - EMERGENCY_FL=STORY 4_SCH=H,Zone Air Relative Humidity [%] !Daily [Value,Min,Hour,Minute,Max,Hour,Minute]
1193,1,ALL_ST=HOSPITAL - EXAM_FL=STORY 3_SCH=C,Zone Air Temperature [C] !Hourly
1194,7,ALL_ST=HOSPITAL - EXAM_FL=STORY 3_SCH=C,Zone Air Relative Humidity [%] !Daily [Value,Min,Hour,Minute,Max,Hour,Minute]
1233,1,ALL_ST=HOSPITAL - LAUNDRY/WASHING_FL=STORY 3_SCH=C,Zone Air Temperature [C] !Hourly
1234,7,ALL_ST=HOSPITAL - LAUNDRY/WASHING_FL=STORY 3_SCH=C,Zone Air Relative Humidity [%] !Daily [Value,Min,Hour,Minute,Max,Hour,Minute]
1273,1,ALL_ST=HOSPITAL - LOUNGE/RECREATION_FL=STORY 4_SCH=B,Zone Air Temperature [C] !Hourly
1274,7,ALL_ST=HOSPITAL - LOUNGE/RECREATION_FL=STORY 4_SCH=B,Zone Air Relative Humidity [%] !Daily [Value,Min,Hour,Minute,Max,Hour,Minute]
1313,1,ALL_ST=HOSPITAL - MEDICAL SUPPLY - OCCSENS_FL=STORY 1_SCH=H,Zone Air Temperature [C] !Hourly
1314,7,ALL_ST=HOSPITAL - MEDICAL SUPPLY - OCCSENS_FL=STORY 1_SCH=H,Zone Air Relative Humidity [%] !Daily [Value,Min,Hour,Minute,Max,Hour,Minute]
1353,1,ALL_ST=HOSPITAL - MEDICAL SUPPLY_FL=STORY 3_SCH=H,Zone Air Temperature [C] !Hourly
1354,7,ALL_ST=HOSPITAL - MEDICAL SUPPLY_FL=STORY 3_SCH=H,Zone Air Relative Humidity [%] !Daily [Value,Min,Hour,Minute,Max,Hour,Minute]
1393,1,ALL_ST=HOSPITAL - NURSERY_FL=STORY 3_SCH=H,Zone Air Temperature [C] !Hourly
1394,7,ALL_ST=HOSPITAL - NURSERY_FL=STORY 3_SCH=H,Zone Air Relative Humidity [%] !Daily [Value,Min,Hour,Minute,Max,Hour,Minute]
1433,1,ALL_ST=HOSPITAL - NURSES STATION_FL=STORY 1_SCH=H,Zone Air Temperature [C] !Hourly
1434,7,ALL_ST=HOSPITAL - NURSES STATION_FL=STORY 1_SCH=H,Zone Air Relative Humidity [%] !Daily [Value,Min,Hour,Minute,Max,Hour,Minute]
1473,1,ALL_ST=HOSPITAL - OPERATING ROOM_FL=STORY 4_SCH=H,Zone Air Temperature [C] !Hourly
1474,7,ALL_ST=HOSPITAL - OPERATING ROOM_FL=STORY 4_SCH=H,Zone Air Relative Humidity [%] !Daily [Value,Min,Hour,Minute,Max,Hour,Minute]
1513,1,ALL_ST=HOSPITAL - PATIENT ROOM_FL=STORY 1_SCH=H,Zone Air Temperature [C] !Hourly
1514,7,ALL_ST=HOSPITAL - PATIENT ROOM_FL=STORY 1_SCH=H,Zone Air Relative Humidity [%] !Daily [Value,Min,Hour,Minute,Max,Hour,Minute]
1553,1,ALL_ST=HOSPITAL - PHARMACY_FL=STORY 1_SCH=C,Zone Air Temperature [C] !Hourly
1554,7,ALL_ST=HOSPITAL - PHARMACY_FL=STORY 1_SCH=C,Zone Air Relative Humidity [%] !Daily [Value,Min,Hour,Minute,Max,Hour,Minute]
1593,1,ALL_ST=HOSPITAL - PHYSICAL THERAPY_FL=STORY 1_SCH=C,Zone Air Temperature [C] !Hourly
1594,7,ALL_ST=HOSPITAL - PHYSICAL THERAPY_FL=STORY 1_SCH=C,Zone Air Relative Humidity [%] !Daily [Value,Min,Hour,Minute,Max,Hour,Minute]
1633,1,ALL_ST=HOSPITAL - RADIOLOGY/IMAGING_FL=STORY 2_SCH=H,Zone Air Temperature [C] !Hourly
1634,7,ALL_ST=HOSPITAL - RADIOLOGY/IMAGING_FL=STORY 2_SCH=H,Zone Air Relative Humidity [%] !Daily [Value,Min,Hour,Minute,Max,Hour,Minute]
1673,1,ALL_ST=HOSPITAL - RECOVERY_FL=STORY 2_SCH=H,Zone Air Temperature [C] !Hourly
1674,7,ALL_ST=HOSPITAL - RECOVERY_FL=STORY 2_SCH=H,Zone Air Relative Humidity [%] !Daily [Value,Min,Hour,Minute,Max,Hour,Minute]
1713,1,WILD_ST=HOSPITAL CORR. < 2.4M-SCH-A_FL=STORY 2_SCH=H,Zone Air Temperature [C] !Hourly
1714,7,WILD_ST=HOSPITAL CORR. < 2.4M-SCH-A_FL=STORY 2_SCH=H,Zone Air Relative Humidity [%] !Daily [Value,Min,Hour,Minute,Max,Hour,Minute]
1753,1,WILD_ST=HOSPITAL CORR. < 2.4M-SCH-B_FL=STORY 2_SCH=H,Zone Air Temperature [C] !Hourly
1754,7,WILD_ST=HOSPITAL CORR. < 2.4M-SCH-B_FL=STORY 2_SCH=H,Zone Air Relative Humidity [%] !Daily [Value,Min,Hour,Minute,Max,Hour,Minute]
1793,1,WILD_ST=HOSPITAL CORR. < 2.4M-SCH-C_FL=STORY 3_SCH=H,Zone Air Temperature [C] !Hourly
1794,7,WILD_ST=HOSPITAL CORR. < 2.4M-SCH-C_FL=STORY 3_SCH=H,Zone Air Relative Humidity [%] !Daily [Value,Min,Hour,Minute,Max,Hour,Minute]
1833,1,WILD_ST=HOSPITAL CORR. < 2.4M-SCH-D_FL=STORY 2_SCH=H,Zone Air Temperature [C] !Hourly
1834,7,WILD_ST=HOSPITAL CORR. < 2.4M-SCH-D_FL=STORY 2_SCH=H,Zone Air Relative Humidity [%] !Daily [Value,Min,Hour,Minute,Max,Hour,Minute]
10,1,Electricity:Facility [J] !TimeStep
839,1,Gas:Facility [J] !TimeStep
End of Data Dictionary
1,FORT MCMURRAY AP ANN CLG .4% CONDNS DB=>MWB,  56.65,-111.22,  -7.00, 369.10
2,1, 7,21, 0, 1, 0.00,10.00,SummerDesignDay
8,14.218136923962174
10,381275182.6625444
839,107644601.17741943
2,1, 7,21, 0, 1,10.00,20.00,SummerDesignDay
8,14.171982153293495
10,379719273.66984739
839,98688179.00102246
2,1, 7,21, 0, 1,20.00,30.00,SummerDesignDay
8,14.125744780286427
10,378371607.0843991
839,113501253.75529273
2,1, 7,21, 0, 1,30.00,40.00,SummerDesignDay
8,14.079436086331978
10,377011629.3091692
839,119820183.173395
2,1, 7,21, 0, 1,40.00,50.00,SummerDesignDay
8,14.033050387896898
10,375637835.92662957
839,119810806.44236753
2,1, 7,21, 0, 1,50.00,60.00,SummerDesignDay
8,13.986581233564835
10,374252161.9383352
839,119801572.99215709
2,1, 7,21, 0, 1, 0.00,60.00,SummerDesignDay
1073,23.588364158945109
1113,23.99781016472632
1153,23.998455542603819
1193,24.104403855143688
1233,24.270914490802637
1273,23.99940215888825
1313,23.999172513361019
1353,23.99930884224631
1393,23.998414672530616
1433,23.998911835186147
1473,23.794881816492184
1513,23.997882359069135
1553,22.150102267546953
1593,22.224936396808926
1633,23.99837703598509
1673,23.506299781836419
1713,23.99977442466096
1753,23.225829071692748
1793,24.179798881480634
1833,24.221918702439749
2,1, 7,21, 0, 2, 0.00,10.00,SummerDesignDay
8,13.95555882260429
10,354326578.26304259
839,118396495.45402667
2,1, 7,21, 0, 2,10.00,20.00,SummerDesignDay
8,13.924507755336454
10,353375255.2661709
839,118259875.99082153
2,1, 7,21, 0, 2,20.00,30.00,SummerDesignDay
8,13.893416042989206
10,352492537.54748788
839,78798298.15518391
2,1, 7,21, 0, 2,30.00,40.00,SummerDesignDay
8,13.862289589689029
10,351489808.5196978
839,118264977.83203724
2,1, 7,21, 0, 2,40.00,50.00,SummerDesignDay
8,13.831134407608739
10,350555428.326563
839,118247960.26675287
2,1, 7,21, 0, 2,50.00,60.00,SummerDesignDay
8,13.799938415548118
10,349587288.2309855
839,118234956.89864974
2,1, 7,21, 0, 2, 0.00,60.00,SummerDesignDay
1073,22.611809037312797
1113,23.49011555911836
1153,23.998656889927888
1193,23.80909473841046
1233,23.910157470267465
1273,23.862315451369598
1313,23.999272267471527
1353,23.999407158537726
1393,23.998594587218674
1433,23.999021861461505
1473,23.363115043651317
1513,23.99809808126676
1553,21.8145692321485
1593,21.897985608302958
1633,23.998556725139193
1673,23.147585849160337
1713,23.999812767137884
1753,23.212564424856969
1793,24.193584743436636
1833,24.238541043112865
2,1, 7,21, 0, 3, 0.00,10.00,SummerDesignDay
8,13.776521671948676
10,331823779.52821496
839,74866110.73298615
2,1, 7,21, 0, 3,10.00,20.00,SummerDesignDay
8,13.753085235778466
10,330949411.0586329
839,74474924.68382068
2,1, 7,21, 0, 3,20.00,30.00,SummerDesignDay
8,13.729636002354969
10,330071274.78339788
839,74915227.73469432
2,1, 7,21, 0, 3,30.00,40.00,SummerDesignDay
8,13.706147375533054
10,329185283.3005942
839,74504701.97618893
2,1, 7,21, 0, 3,40.00,50.00,SummerDesignDay
8,13.682651961920304
10,328322974.38834908
839,74516881.27335347
2,1, 7,21, 0, 3,50.00,60.00,SummerDesignDay
8,13.659136670643687
10,327382887.2509018
839,106460558.13074635
2,1, 7,21, 0, 3, 0.00,60.00,SummerDesignDay
1073,21.27651341935685
1113,22.14724180841009
1153,23.9989028340327
1193,23.547658629709024
1233,23.60657976139481
1273,22.9933590721794
1313,23.999389240899814
1353,23.999526150970138
1393,23.998854281859467
1433,23.999200769877448
1473,22.995864120073667
1513,23.998418323916707
1553,21.53834667825235
1593,21.631832364307557
1633,23.99879942739638
1673,22.871852493069296
1713,23.999855279234536
1753,23.19874537800487
1793,24.203288915269807
1833,24.251784332662298
2,1, 7,21, 0, 4, 0.00,10.00,SummerDesignDay
8,13.63560137410855
10,326405394.5024776
839,79763751.248003
2,1, 7,21, 0, 4,10.00,20.00,SummerDesignDay
8,13.612040802606578
10,325660190.1341766
839,74454953.92351784
2,1, 7,21, 0, 4,20.00,30.00,SummerDesignDay
8,13.58846620506876
10,324701526.74518409
839,74469269.99649354
2,1, 7,21, 0, 4,30.00,40.00,SummerDesignDay
8,13.56487178447336
10,323843554.21769496
839,74483762.18090134
2,1, 7,21, 0, 4,40.00,50.00,SummerDesignDay
8,13.541257354069103
10,322982178.67605498
839,74498150.24551201
2,1, 7,21, 0, 4,50.00,60.00,SummerDesignDay
8,13.517617463812285
10,322117628.7442413
839,74512431.69791623
2,1, 7,21, 0, 4, 0.00,60.00,SummerDesignDay
1073,20.546642275553017
1113,21.28891522839868
1153,23.99861693522612
1193,23.298346519547594
1233,23.338982004119477
1273,22.255278364659089
1313,23.999204958440744
1353,23.999414079399128
1393,23.998570877314156
1433,23.980181383479818
1473,22.66752302823158
1513,23.997969451377924
1553,21.297233149758417
1593,21.401419112267246
1633,23.998466302854678
1673,22.63133344036387
1713,23.99982348686945
1753,23.18562086379905
1793,24.208426693756349
1833,24.262809388359388
2,1, 7,21, 0, 5, 0.00,10.00,SummerDesignDay
8,13.50185415824011
10,321439067.991563
839,94846381.22463677
2,1, 7,21, 0, 5,10.00,20.00,SummerDesignDay
8,13.486076034032447
10,321608927.1783804
839,91396057.93451555
2,1, 7,21, 0, 5,20.00,30.00,SummerDesignDay
8,13.470289340350983
10,321682179.3587149
839,74451246.703147
2,1, 7,21, 0, 5,30.00,40.00,SummerDesignDay
8,13.454493322631063
10,321766155.63946816
839,74464978.94277732
2,1, 7,21, 0, 5,40.00,50.00,SummerDesignDay
8,13.438688835118548
10,321805829.2527031
839,74479472.560287
2,1, 7,21, 0, 5,50.00,60.00,SummerDesignDay
8,13.422888173889437
10,321734838.05263999
839,74493892.36996852
2,1, 7,21, 0, 5, 0.00,60.00,SummerDesignDay
1073,20.349876339958688
1113,21.260294048517364
1153,23.99861555860811
1193,23.12044156434438
1233,23.10638174337343
1273,22.031764794777105
1313,23.99920195976732
1353,23.99943902930269
1393,23.998521226992378
1433,23.88208840658737
1473,22.439448990259704
1513,23.997982726986196
1553,21.086063327385813
1593,21.20104663312296
1633,23.998479511480409
1673,22.50544290939929
1713,23.999794827995676
1753,23.10262714251279
1793,24.13909399496129
1833,24.21427417328448
2,1, 7,21, 0, 6, 0.00,10.00,SummerDesignDay
8,13.438688835118548
10,322311173.32560518
839,74508205.46050698
2,1, 7,21, 0, 6,10.00,20.00,SummerDesignDay
8,13.454493322631063
10,322797986.83960708
839,83115982.8856183
2,1, 7,21, 0, 6,20.00,30.00,SummerDesignDay
8,13.470289340350983
10,323211520.303316
839,103150715.41069597
2,1, 7,21, 0, 6,30.00,40.00,SummerDesignDay
8,13.486076034032447
10,323593402.5952447
839,74448095.36374925
2,1, 7,21, 0, 6,40.00,50.00,SummerDesignDay
8,13.50185415824011
10,323961150.24342527
839,74460708.16660261
2,1, 7,21, 0, 6,50.00,60.00,SummerDesignDay
8,13.517617463812285
10,324345176.17754217
839,74475171.62678309
2,1, 7,21, 0, 6, 0.00,60.00,SummerDesignDay
1073,20.463547921659989
1113,22.292864685470179
1153,23.998520279000564
1193,23.083190269279375
1233,22.997733534104726
1273,22.283412044931937
1313,23.999150706529237
1353,23.9994237933235
1393,23.998229353229637
1433,23.853668722429224
1473,22.513131596771275
1513,23.997930646921338
1553,20.990033199180748
1593,21.116283097065108
1633,23.998444296502784
1673,22.74403743727405
1713,23.99976225980662
1753,22.981563138602515
1793,24.015365078065487
1833,24.11285746103476
2,1, 7,21, 0, 7, 0.00,10.00,SummerDesignDay
8,13.572736920571789
10,325709158.4970822
839,74489623.37871492
2,1, 7,21, 0, 7,10.00,20.00,SummerDesignDay
8,13.627748229152554
10,327124889.6036245
839,74503968.11155641
2,1, 7,21, 0, 7,20.00,30.00,SummerDesignDay
8,13.682651961920304
10,328585473.4346879
839,74518206.20438877
2,1, 7,21, 0, 7,30.00,40.00,SummerDesignDay
8,13.737448093244995
10,330364422.45874807
839,110740846.01682326
2,1, 7,21, 0, 7,40.00,50.00,SummerDesignDay
8,13.792137011831216
10,331965025.86829027
839,75477763.4601141
2,1, 7,21, 0, 7,50.00,60.00,SummerDesignDay
8,13.846719282840333
10,333461592.2035839
839,74456468.47142644
2,1, 7,21, 0, 7, 0.00,60.00,SummerDesignDay
1073,20.815181780684168
1113,23.57430889300584
1153,23.998348387619079
1193,23.101046211179079
1233,23.110237761867344
1273,22.615920853443048
1313,23.99904621733893
1353,23.9993718827515
1393,23.998023109529247
1433,23.969373253134788
1473,23.035022381486145
1513,23.997800620601386
1553,21.124055148634125
1593,21.262581858742075
1633,23.99837660895356
1673,23.25368061943144
1713,23.99979262785129
1753,23.02732350190732
1793,24.045870612823138
1833,24.13651026095266
2,1, 7,21, 0, 8, 0.00,10.00,SummerDesignDay
8,13.978831900527043
10,336723036.465268
839,74470867.83591117
2,1, 7,21, 0, 8,10.00,20.00,SummerDesignDay
8,14.110321014287419
10,339901683.0113238
839,74485351.52311936
2,1, 7,21, 0, 8,20.00,30.00,SummerDesignDay
8,14.241191509616986
10,347057759.2022513
839,74499727.84300292
2,1, 7,21, 0, 8,30.00,40.00,SummerDesignDay
8,14.371447531304272
10,352793049.55457177
839,74513997.55291645
2,1, 7,21, 0, 8,40.00,50.00,SummerDesignDay
8,14.501093766564925
10,358282586.7028034
839,99170639.24199987
2,1, 7,21, 0, 8,50.00,60.00,SummerDesignDay
8,14.630134792273804
10,363924162.23578849
839,87064485.5961199
2,1, 7,21, 0, 8, 0.00,60.00,SummerDesignDay
1073,21.51984762978267
1113,24.91475425125928
1153,23.998043497475164
1193,23.44232505393777
1233,23.58750182323789
1273,23.503366068126259
1313,23.998932459148155
1353,23.999294616148388
1393,23.9979409008605
1433,23.998648329147146
1473,23.894247554465499
1513,23.997667387590427
1553,21.645876113302625
1593,21.797762245811595
1633,23.998301186043706
1673,23.915041945935344
1713,23.999772110611489
1753,23.034254431640489
1793,24.0366697508621
1833,24.115023184962117
2,1, 7,21, 0, 9, 0.00,10.00,SummerDesignDay
8,14.773641492809972
10,429888998.869422
839,74636127.12192212
2,1, 7,21, 0, 9,10.00,20.00,SummerDesignDay
8,14.91640948124148
10,436747769.0516632
839,74605243.86525905
2,1, 7,21, 0, 9,20.00,30.00,SummerDesignDay
8,15.05843890714102
10,443602609.1410305
839,74627630.27329071
2,1, 7,21, 0, 9,30.00,40.00,SummerDesignDay
8,15.199735893563798
10,450488665.97629967
839,74645270.33187349
2,1, 7,21, 0, 9,40.00,50.00,SummerDesignDay
8,15.340306256439395
10,457463938.72604688
839,80326643.35777132
2,1, 7,21, 0, 9,50.00,60.00,SummerDesignDay
8,15.48015101768072
10,464834022.94815966
839,106292811.89174618
2,1, 7,21, 0, 9, 0.00,60.00,SummerDesignDay
1073,22.548711362619828
1113,24.048599814920068
1153,23.998534188515554
1193,23.990172028511226
1233,23.999610016523734
1273,24.00001252302822
1313,23.99932188017488
1353,23.999512302761827
1393,23.99871436757037
1433,23.99911553591444
1473,23.997803464080208
1513,23.99851934667733
1553,22.97427246936297
1593,23.3057460362074
1633,23.99892746882321
1673,23.998693872097989
1713,23.999853680436403
1753,23.038050115378849
1793,24.014513095121015
1833,24.05922549254137
2,1, 7,21, 0,10, 0.00,10.00,SummerDesignDay
8,15.60467292907716
10,541424779.1500083
839,121383204.58824507
2,1, 7,21, 0,10,10.00,20.00,SummerDesignDay
8,15.72862731650033
10,552975028.8691747
839,122121407.29097618
2,1, 7,21, 0,10,20.00,30.00,SummerDesignDay
8,15.852017409284228
10,562805627.1631148
839,122087658.00091805
2,1, 7,21, 0,10,30.00,40.00,SummerDesignDay
8,15.974848118364367
10,568065714.9455521
839,122096872.27083427
2,1, 7,21, 0,10,40.00,50.00,SummerDesignDay
8,16.097123145563505
10,575567241.6421635
839,122107717.16086923
2,1, 7,21, 0,10,50.00,60.00,SummerDesignDay
8,16.218846351168599
10,582468582.770627
839,122118595.122226
2,1, 7,21, 0,10, 0.00,60.00,SummerDesignDay
1073,23.88738326504597
1113,23.999145109246468
1153,23.99802255896314
1193,23.99956130128916
1233,23.999670870910149
1273,23.999493885578727
1313,23.99925330672374
1353,23.99936767936953
1393,23.998443008126317
1433,23.99896502229406
1473,23.997059497749146
1513,23.998212869374219
1553,23.975132486628028
1593,23.999557679899387
1633,23.99870028331854
1673,23.998457308995414
1713,23.99983949613332
1753,23.130457094919526
1793,23.999970345739315
1833,23.99730500757984
2,1, 7,21, 0,11, 0.00,10.00,SummerDesignDay
8,16.325793027093189
10,602032273.8690399
839,122579321.63612211
2,1, 7,21, 0,11,10.00,20.00,SummerDesignDay
8,16.432322158488288
10,608504558.7751621
839,122645209.9595103
2,1, 7,21, 0,11,20.00,30.00,SummerDesignDay
8,16.538424180249178
10,614519941.377125
839,122661305.48204157
2,1, 7,21, 0,11,30.00,40.00,SummerDesignDay
8,16.644108396469087
10,620367649.1676335
839,143719357.3560495
2,1, 7,21, 0,11,40.00,50.00,SummerDesignDay
8,16.749376736593655
10,626085095.8954291
839,142450034.84457547
2,1, 7,21, 0,11,50.00,60.00,SummerDesignDay
8,16.854232613237156
10,631695448.1056315
839,122570829.31350354
2,1, 7,21, 0,11, 0.00,60.00,SummerDesignDay
1073,23.997859420043939
1113,23.997991806841683
1153,23.997610183589474
1193,23.999520642390626
1233,23.999652347026257
1273,23.999009340808017
1313,23.99926704506709
1353,23.99926067434843
1393,23.998324407484519
1433,23.99891715596389
1473,23.99646098311376
1513,23.998045300641257
1553,23.999797770850895
1593,23.999737416593935
1633,23.99854436368381
1673,23.998354348386003
1713,23.999868289945615
1753,23.35020600306909
1793,23.98769804541639
1833,23.948114214198556
2,1, 7,21, 0,12, 0.00,10.00,SummerDesignDay
8,16.92390823520069
10,654384012.7373027
839,109042949.76099594
2,1, 7,21, 0,12,10.00,20.00,SummerDesignDay
8,16.99340178950456
10,658215616.3258485
839,88528363.63534257
2,1, 7,21, 0,12,20.00,30.00,SummerDesignDay
8,17.06272006743463
10,663025692.9500054
839,118361614.52656718
2,1, 7,21, 0,12,30.00,40.00,SummerDesignDay
8,17.131853229172639
10,667518581.757545
839,118346302.60185085
2,1, 7,21, 0,12,40.00,50.00,SummerDesignDay
8,17.200807172194087
10,671984116.669254
839,118333246.30599183
2,1, 7,21, 0,12,50.00,60.00,SummerDesignDay
8,17.269582116758607
10,676343278.6868135
839,86555259.84936388
2,1, 7,21, 0,12, 0.00,60.00,SummerDesignDay
1073,23.997316813019809
1113,23.997454934795156
1153,23.997553038651529
1193,23.999387193799334
1233,23.999545293355298
1273,23.998593509780816
1313,23.999375969538567
1353,23.999255034171246
1393,23.998392118096765
1433,23.999017538040069
1473,23.996440635104226
1513,23.99814706509243
1553,23.99978760684732
1593,23.999715663541939
1633,23.99856678455853
1673,23.998515881064735
1713,23.999933063930503
1753,23.593053421701936
1793,23.98619185667798
1833,23.91380990000579
2,1, 7,21, 0,13, 0.00,10.00,SummerDesignDay
8,17.32447360221357
10,690425686.8345218
839,128009083.40345812
2,1, 7,21, 0,13,10.00,20.00,SummerDesignDay
8,17.379251291230806
10,695510731.0171869
839,133800709.69902238
2,1, 7,21, 0,13,20.00,30.00,SummerDesignDay
8,17.433921312061729
10,699440060.3477844
839,133907840.15145968
2,1, 7,21, 0,13,30.00,40.00,SummerDesignDay
8,17.488473222557489
10,703288738.8815879
839,123946548.99130835
2,1, 7,21, 0,13,40.00,50.00,SummerDesignDay
8,17.542913447755134
10,706946663.0269692
839,121794445.07094997
2,1, 7,21, 0,13,50.00,60.00,SummerDesignDay
8,17.59724609886134
10,710402811.7269476
839,121802461.87648796
2,1, 7,21, 0,13, 0.00,60.00,SummerDesignDay
1073,23.997259967214445
1113,24.43709260560038
1153,23.99766212001424
1193,23.9991392703905
1233,23.99937768393757
1273,23.99800933949128
1313,23.99929070846711
1353,23.999274260192818
1393,23.998336327115039
1433,23.998959566421719
1473,23.996189583909798
1513,23.997999530045786
1553,23.999636166551978
1593,23.999525854641577
1633,23.998624008073237
1673,23.99847765278363
1713,23.999987356028045
1753,23.75665037825856
1793,23.99750025651521
1833,23.891332723716248
2,1, 7,21, 0,14, 0.00,10.00,SummerDesignDay
8,17.6311450462694
10,710832519.2745401
839,123290977.9410833
2,1, 7,21, 0,14,10.00,20.00,SummerDesignDay
8,17.665000449016245
10,713144196.8800548
839,123481971.72432885
2,1, 7,21, 0,14,20.00,30.00,SummerDesignDay
8,17.698812743128934
10,715045457.7705389
839,123508536.39768236
2,1, 7,21, 0,14,30.00,40.00,SummerDesignDay
8,17.732582050940107
10,716875544.018707
839,139864802.1017615
2,1, 7,21, 0,14,40.00,50.00,SummerDesignDay
8,17.766307345121004
10,718645083.5518394
839,148328279.64938913
2,1, 7,21, 0,14,50.00,60.00,SummerDesignDay
8,17.79999023167558
10,720334149.6750906
839,123439858.20494849
2,1, 7,21, 0,14, 0.00,60.00,SummerDesignDay
1073,23.996951737309727
1113,24.58025177748411
1153,23.99758604051421
1193,23.99870901286772
1233,23.99919424544728
1273,23.997777929760266
1313,23.999162927011214
1353,23.999229624834773
1393,23.998410719750895
1433,23.99885359149685
1473,23.996040379301964
1513,23.999014037443464
1553,23.99944364675476
1593,23.999280749364926
1633,23.998496417678493
1673,23.998383814945158
1713,23.999951575889268
1753,23.806287392922344
1793,24.013851890187927
1833,23.876220721582628
2,1, 7,21, 0,15, 0.00,10.00,SummerDesignDay
8,17.79999023167558
10,715573430.1255636
839,123465870.72327873
2,1, 7,21, 0,15,10.00,20.00,SummerDesignDay
8,17.79999023167558
10,715153228.2261881
839,123492734.66763543
2,1, 7,21, 0,15,20.00,30.00,SummerDesignDay
8,17.79999023167558
10,711313668.5421842
839,123519270.34015014
2,1, 7,21, 0,15,30.00,40.00,SummerDesignDay
8,17.79999023167558
10,711183444.9549282
839,153861253.54437579
2,1, 7,21, 0,15,40.00,50.00,SummerDesignDay
8,17.79999023167558
10,710118053.667707
839,134304095.60899393
2,1, 7,21, 0,15,50.00,60.00,SummerDesignDay
8,17.79999023167558
10,709078751.0470293
839,123450008.9566198
2,1, 7,21, 0,15, 0.00,60.00,SummerDesignDay
1073,23.997089285735656
1113,24.070847883420055
1153,23.997303112547387
1193,23.99850069763207
1233,23.99897114349208
1273,23.997965348658285
1313,23.999119232473288
1353,23.99914746119011
1393,23.998309170082864
1433,23.99881932278073
1473,23.99610594860903
1513,24.018296843601019
1553,23.999399873183408
1593,23.99923631385497
1633,23.99827557493873
1673,23.998385272835987
1713,23.999899389572638
1753,23.726735010365599
1793,24.03539281789207
1833,23.87181917477369
2,1, 7,21, 0,16, 0.00,10.00,SummerDesignDay
8,17.759562446305357
10,698529263.5926919
839,120541043.94608207
2,1, 7,21, 0,16,10.00,20.00,SummerDesignDay
8,17.71907809634183
10,693097969.477835
839,120221120.87814234
2,1, 7,21, 0,16,20.00,30.00,SummerDesignDay
8,17.67853788661001
10,689886775.6220256
839,120214672.40654958
2,1, 7,21, 0,16,30.00,40.00,SummerDesignDay
8,17.63791796367351
10,686596090.2383074
839,120208093.06749176
2,1, 7,21, 0,16,40.00,50.00,SummerDesignDay
8,17.59724609886134
10,683410165.7179307
839,120201501.41967318
2,1, 7,21, 0,16,50.00,60.00,SummerDesignDay
8,17.55650676726033
10,680200390.7345741
839,111380181.17608878
2,1, 7,21, 0,16, 0.00,60.00,SummerDesignDay
1073,23.998267884396655
1113,23.99821730083869
1153,23.99705594543094
1193,23.998359508446474
1233,23.998765052632938
1273,23.998660151363468
1313,23.999100561378186
1353,23.9991165320926
1393,23.998187944806888
1433,23.99880936804547
1473,23.99627045265216
1513,23.999916266892048
1553,23.99937946743879
1593,23.99922051922657
1633,23.99801936449931
1673,23.998394727405925
1713,23.999825440715413
1753,23.561144381120099
1793,24.066519218643167
1833,23.88510200301827
2,1, 7,21, 0,17, 0.00,10.00,SummerDesignDay
8,17.50209486331892
10,676646674.3274156
839,87283917.45646617
2,1, 7,21, 0,17,10.00,20.00,SummerDesignDay
8,17.447570789624618
10,672225018.928712
839,117760697.56086454
2,1, 7,21, 0,17,20.00,30.00,SummerDesignDay
8,17.392929544208135
10,668424459.3565134
839,117746127.67850778
2,1, 7,21, 0,17,30.00,40.00,SummerDesignDay
8,17.33818013976614
10,664829737.5571785
839,94661800.17945601
2,1, 7,21, 0,17,40.00,50.00,SummerDesignDay
8,17.283317298559309
10,661316962.9490917
839,101560275.22128536
2,1, 7,21, 0,17,50.00,60.00,SummerDesignDay
8,17.22833552437677
10,657806653.4396346
839,117754897.07236122
2,1, 7,21, 0,17, 0.00,60.00,SummerDesignDay
1073,23.998737460425578
1113,23.998705557826289
1153,23.997134328825337
1193,23.99829863631945
1233,23.998636286018784
1273,23.999130993327755
1313,23.999076685662563
1353,23.998975957955179
1393,23.998015621622629
1433,23.998809643085904
1473,23.996551767026216
1513,23.997720181776559
1553,23.999378554553574
1593,23.999213012253337
1633,23.997850244935795
1673,23.99846859801505
1713,23.99976935896251
1753,23.4257711159035
1793,24.10025724243265
1833,23.913716104623587
2,1, 7,21, 0,18, 0.00,10.00,SummerDesignDay
8,17.159453019160176
10,654707954.5255082
839,116922908.76733086
2,1, 7,21, 0,18,10.00,20.00,SummerDesignDay
8,17.090391773337136
10,650446836.1346462
839,77849878.50824078
2,1, 7,21, 0,18,20.00,30.00,SummerDesignDay
8,17.021151077964786
10,646211426.9776174
839,116840760.70834536
2,1, 7,21, 0,18,30.00,40.00,SummerDesignDay
8,16.951729380464653
10,642082761.5125078
839,105795797.28803133
2,1, 7,21, 0,18,40.00,50.00,SummerDesignDay
8,16.882126503829249
10,637993657.5148914
839,88891695.41742939
2,1, 7,21, 0,18,50.00,60.00,SummerDesignDay
8,16.812341807494034
10,633924369.5114704
839,116837470.91524185
2,1, 7,21, 0,18, 0.00,60.00,SummerDesignDay
1073,23.99876239147739
1113,23.99873865722009
1153,23.997059508255306
1193,23.998317021414935
1233,23.99856207996949
1273,23.999265965047824
1313,23.99896302604152
1353,23.998941684906016
1393,23.99799013284372
1433,23.998706839773516
1473,23.99673991301484
1513,23.997580727107477
1553,23.9993456457299
1593,23.999170484327665
1633,23.997755099751275
1673,23.998360139047678
1713,23.999651968684348
1753,23.36936862087919
1793,24.127312509473968
1833,23.95285373354959
2,1, 7,21, 0,19, 0.00,10.00,SummerDesignDay
8,16.707321072823203
10,631225437.7490192
839,112224851.3901339
2,1, 7,21, 0,19,10.00,20.00,SummerDesignDay
8,16.601881826644556
10,625975506.2266972
839,84099499.41984737
2,1, 7,21, 0,19,20.00,30.00,SummerDesignDay
8,16.496030555252849
10,620379618.3439993
839,117893745.72086692
2,1, 7,21, 0,19,30.00,40.00,SummerDesignDay
8,16.389760181474104
10,614812065.3412796
839,117878609.6542414
2,1, 7,21, 0,19,40.00,50.00,SummerDesignDay
8,16.283067654262039
10,609253208.5397023
839,103365158.78880243
2,1, 7,21, 0,19,50.00,60.00,SummerDesignDay
8,16.17595057957811
10,603706871.0910955
839,93066464.06743738
2,1, 7,21, 0,19, 0.00,60.00,SummerDesignDay
1073,23.998200593684989
1113,23.998170775665359
1153,23.99725374649692
1193,23.99860358258918
1233,23.998766782358559
1273,23.999060162065758
1313,23.99881007900306
1353,23.998922564444397
1393,23.997981974042675
1433,23.998629280682825
1473,23.996946519637036
1513,23.997406780964807
1553,23.999474674397658
1593,23.99931493885319
1633,23.99759477731983
1673,23.998356940557455
1713,23.99959820559621
1753,23.322255800858085
1793,24.131433601869135
1833,23.989698167931129
2,1, 7,21, 0,20, 0.00,10.00,SummerDesignDay
8,16.097123145563505
10,564410846.2863714
839,118853079.2582395
2,1, 7,21, 0,20,10.00,20.00,SummerDesignDay
8,16.018070242471564
10,560114077.3094288
839,118947910.23938219
2,1, 7,21, 0,20,20.00,30.00,SummerDesignDay
8,15.938779752340516
10,555645898.798734
839,118935481.38263837
2,1, 7,21, 0,20,30.00,40.00,SummerDesignDay
8,15.85926152575189
10,551079696.5289484
839,115465326.4766521
2,1, 7,21, 0,20,40.00,50.00,SummerDesignDay
8,15.779503718563929
10,546361000.1202309
839,82728935.84641098
2,1, 7,21, 0,20,50.00,60.00,SummerDesignDay
8,15.699515709672767
10,541422052.0101419
839,118975238.3233487
2,1, 7,21, 0,20, 0.00,60.00,SummerDesignDay
1073,23.997192449230128
1113,23.99715875027333
1153,23.99761305262062
1193,23.999209611781088
1233,23.999352408923018
1273,23.998606098435145
1313,23.998821324646916
1353,23.998980867803863
1393,23.998047854963443
1433,23.998657278008513
1473,23.997209643000219
1513,23.99743676639416
1553,23.999753635799196
1593,23.999688371676503
1633,23.997772936443935
1673,23.998427370640856
1713,23.999563322469489
1753,23.20160036986538
1793,24.049676389747537
1833,23.96744757951349
2,1, 7,21, 0,21, 0.00,10.00,SummerDesignDay
8,15.63389147320404
10,524229565.54082426
839,123310090.98351442
2,1, 7,21, 0,21,10.00,20.00,SummerDesignDay
8,15.56810827419793
10,519947693.00658729
839,161354676.32575996
2,1, 7,21, 0,21,20.00,30.00,SummerDesignDay
8,15.502170882753524
10,514802041.59879967
839,127477003.81093319
2,1, 7,21, 0,21,30.00,40.00,SummerDesignDay
8,15.436068032613852
10,509659645.78182187
839,123749642.04506834
2,1, 7,21, 0,21,40.00,50.00,SummerDesignDay
8,15.369804371206009
10,504711015.7898932
839,123780070.25731595
2,1, 7,21, 0,21,50.00,60.00,SummerDesignDay
8,15.303384603594449
10,499570417.57660427
839,123810212.83479873
2,1, 7,21, 0,21, 0.00,60.00,SummerDesignDay
1073,23.996623226847306
1113,23.99657444484089
1153,23.998061504302343
1193,23.999507483539018
1233,23.99964878750968
1273,23.998482157584517
1313,23.998911399411779
1353,23.999082757975719
1393,23.998157197784257
1433,23.99872735547649
1473,23.997424078173947
1513,23.997563978681737
1553,23.99986491575913
1593,23.999830399034555
1633,23.99809395236683
1673,23.99849255173966
1713,23.99962525356149
1753,23.156720198743458
1793,24.0276749176933
1833,23.992416611752267
2,1, 7,21, 0,22, 0.00,10.00,SummerDesignDay
8,15.236797685071274