Program Version,EnergyPlus, Version 8.9.0-eba93e8e1b, YMD=2019.03.26 20:20
1,5,Environment Title[],Latitude[deg],Longitude[deg],Time Zone[],Elevation[m]
2,8,Day of Simulation[],Month[],Day of Month[],DST Indicator[1=yes 0=no],Hour[],StartMinute[],EndMinute[],DayType
3,5,Cumulative Day of Simulation[],Month[],Day of Month[],DST Indicator[1=yes 0=no],DayType  ! When Daily Report Variables Requested
4,2,Cumulative Days of Simulation[],Month[]  ! When Monthly Report Variables Requested
5,1,Cumulative Days of Simulation[] ! When Run Period Report Variables Requested
6,1,Calendar Year of Simulation[] ! When Annual Report Variables Requested
7,9,Environment,Site Outdoor Air Drybulb Temperature [C] !Monthly [Value,Min,Day,Hour,Minute,Max,Day,Hour,Minute]
8,1,Environment,Site Outdoor Air Wetbulb Temperature [C] !TimeStep
1112,1,SP-MANUFACTURING FACILITY EQUIPMENT ROOM-SPACE FUNCTION SYS-3 FLR-4 SCH-A HPLCMT-SOUTH ZN,Zone Air Temperature [C] !Hourly
1113,7,SP-MANUFACTURING FACILITY EQUIPMENT ROOM-SPACE FUNCTION SYS-3 FLR-4 SCH-A HPLCMT-SOUTH ZN,Zone Air Relative Humidity [%] !Daily [Value,Min,Hour,Minute,Max,Hour,Minute]
1152,1,SP-MANUFACTURING FACILITY EXTRA HIGH BAY AREA (> 15 M FLOOR-TO-CEILING HEIGHT)-SPACE FUNCTION SYS-3 FLR-4 SCH-A HPLCMT-NORTH ZN,Zone Air Temperature [C] !Hourly
1153,7,SP-MANUFACTURING FACILITY EXTRA HIGH BAY AREA (> 15 M FLOOR-TO-CEILING HEIGHT)-SPACE FUNCTION SYS-3 FLR-4 SCH-A HPLCMT-NORTH ZN,Zone Air Relative Humidity [%] !Daily [Value,Min,Hour,Minute,Max,Hour,Minute]
1192,1,SP-MANUFACTURING FACILITY HIGH BAY AREA (7.5 TO 15 M FLOOR-TO-CEILING HEIGHT)-SPACE FUNCTION SYS-3 FLR-3 SCH-A HPLCMT-SOUTH ZN,Zone Air Temperature [C] !Hourly
1193,7,SP-MANUFACTURING FACILITY HIGH BAY AREA (7.5 TO 15 M FLOOR-TO-CEILING HEIGHT)-SPACE FUNCTION SYS-3 FLR-3 SCH-A HPLCMT-SOUTH ZN,Zone Air Relative Humidity [%] !Daily [Value,Min,Hour,Minute,Max,Hour,Minute]
1232,1,SP-MANUFACTURING FACILITY LOW BAY AREA (< 7.5 M FLOOR-TO-CEILING HEIGHT)-SPACE FUNCTION SYS-3 FLR-3 SCH-A HPLCMT-NORTH ZN,Zone Air Temperature [C] !Hourly
1233,7,SP-MANUFACTURING FACILITY LOW BAY AREA (< 7.5 M FLOOR-TO-CEILING HEIGHT)-SPACE FUNCTION SYS-3 FLR-3 SCH-A HPLCMT-NORTH ZN,Zone Air Relative Humidity [%] !Daily [Value,Min,Hour,Minute,Max,Hour,Minute]
1272,1,SP-MUSEUM GENERAL EXHIBITION AREA-SPACE FUNCTION SYS-2 FLR-3 SCH-C HPLCMT-WEST ZN,Zone Air Temperature [C] !Hourly
1273,7,SP-MUSEUM GENERAL EXHIBITION AREA-SPACE FUNCTION SYS-2 FLR-3 SCH-C HPLCMT-WEST ZN,Zone Air Relative Humidity [%] !Daily [Value,Min,Hour,Minute,Max,Hour,Minute]
1312,1,SP-MUSEUM RESTORATION ROOM-SPACE FUNCTION SYS-2 FLR-1 SCH-A HPLCMT-WEST ZN,Zone Air Temperature [C] !Hourly
1313,7,SP-MUSEUM RESTORATION ROOM-SPACE FUNCTION SYS-2 FLR-1 SCH-A HPLCMT-WEST ZN,Zone Air Relative Humidity [%] !Daily [Value,Min,Hour,Minute,Max,Hour,Minute]
1352,1,SP-POST OFFICE SORTING AREA-SPACE FUNCTION SYS-6 FLR-4 SCH-A HPLCMT-EAST ZN,Zone Air Temperature [C] !Hourly
1353,7,SP-POST OFFICE SORTING AREA-SPACE FUNCTION SYS-6 FLR-4 SCH-A HPLCMT-EAST ZN,Zone Air Relative Humidity [%] !Daily [Value,Min,Hour,Minute,Max,Hour,Minute]
1392,1,SP-RELIGIOUS BUILDING FELLOWSHIP HALL-SPACE FUNCTION SYS-3 FLR-1 SCH-C HPLCMT-NORTH ZN,Zone Air Temperature [C] !Hourly
1393,7,SP-RELIGIOUS BUILDING FELLOWSHIP HALL-SPACE FUNCTION SYS-3 FLR-1 SCH-C HPLCMT-NORTH ZN,Zone Air Relative Humidity [%] !Daily [Value,Min,Hour,Minute,Max,Hour,Minute]
1432,1,SP-RETAIL FACILITY DRESSING/FITTING ROOM-SPACE FUNCTION SYS-6 FLR-3 SCH-C HPLCMT-CORE ZN,Zone Air Temperature [C] !Hourly
1433,7,SP-RETAIL FACILITY DRESSING/FITTING ROOM-SPACE FUNCTION SYS-6 FLR-3 SCH-C HPLCMT-CORE ZN,Zone Air Relative Humidity [%] !Daily [Value,Min,Hour,Minute,Max,Hour,Minute]
1472,1,SP-RETAIL FACILITY MALL CONCOURSE-SPACE FUNCTION SYS-6 FLR-2 SCH-C HPLCMT-CORE ZN,Zone Air Temperature [C] !Hourly
1473,7,SP-RETAIL FACILITY MALL CONCOURSE-SPACE FUNCTION SYS-6 FLR-2 SCH-C HPLCMT-CORE ZN,Zone Air Relative Humidity [%] !Daily [Value,Min,Hour,Minute,Max,Hour,Minute]
1512,1,SP-SPACE DESIGNED TO ANSI/IES RP-28 RECREATION ROOM (USED PRIMARILY BY RESIDENTS)-SPACE FUNCTION SYS-3 FLR-4 SCH-B HPLCMT-CORE ZN,Zone Air Temperature [C] !Hourly
1513,7,SP-SPACE DESIGNED TO ANSI/IES RP-28 RECREATION ROOM (USED PRIMARILY BY RESIDENTS)-SPACE FUNCTION SYS-3 FLR-4 SCH-B HPLCMT-CORE ZN,Zone Air Relative Humidity [%] !Daily [Value,Min,Hour,Minute,Max,Hour,Minute]
1552,1,SP-SPORTS ARENA PLAYING AREA CLASS I FACILITY(4)-SPACE FUNCTION SYS-6 FLR-4 SCH-B HPLCMT-WEST ZN,Zone Air Temperature [C] !Hourly
1553,7,SP-SPORTS ARENA PLAYING AREA CLASS I FACILITY(4)-SPACE FUNCTION SYS-6 FLR-4 SCH-B HPLCMT-WEST ZN,Zone Air Relative Humidity [%] !Daily [Value,Min,Hour,Minute,Max,Hour,Minute]
1592,1,SP-SPORTS ARENA PLAYING AREA CLASS II FACILITY(4)-SPACE FUNCTION SYS-6 FLR-1 SCH-B HPLCMT-EAST ZN,Zone Air Temperature [C] !Hourly
1593,7,SP-SPORTS ARENA PLAYING AREA CLASS II FACILITY(4)-SPACE FUNCTION SYS-6 FLR-1 SCH-B HPLCMT-EAST ZN,Zone Air Relative Humidity [%] !Daily [Value,Min,Hour,Minute,Max,Hour,Minute]
1632,1,SP-SPORTS ARENA PLAYING AREA CLASS III FACILITY(4)-SPACE FUNCTION SYS-6 FLR-3 SCH-B HPLCMT-EAST ZN,Zone Air Temperature [C] !Hourly
1633,7,SP-SPORTS ARENA PLAYING AREA CLASS III FACILITY(4)-SPACE FUNCTION SYS-6 FLR-3 SCH-B HPLCMT-EAST ZN,Zone Air Relative Humidity [%] !Daily [Value,Min,Hour,Minute,Max,Hour,Minute]
1672,1,SP-SPORTS ARENA PLAYING AREA CLASS IV FACILITY(4)-SPACE FUNCTION SYS-6 FLR-1 SCH-B HPLCMT-SOUTH ZN,Zone Air Temperature [C] !Hourly
1673,7,SP-SPORTS ARENA PLAYING AREA CLASS IV FACILITY(4)-SPACE FUNCTION SYS-6 FLR-1 SCH-B HPLCMT-SOUTH ZN,Zone Air Relative Humidity [%] !Daily [Value,Min,Hour,Minute,Max,Hour,Minute]
1712,1,SP-TRANSPORTATION FACILITY AIRPORT CONCOURSE-SPACE FUNCTION SYS-6 FLR-1 SCH-H HPLCMT-CORE ZN,Zone Air Temperature [C] !Hourly
1713,7,SP-TRANSPORTATION FACILITY AIRPORT CONCOURSE-SPACE FUNCTION SYS-6 FLR-1 SCH-H HPLCMT-CORE ZN,Zone Air Relative Humidity [%] !Daily [Value,Min,Hour,Minute,Max,Hour,Minute]
1752,1,SP-TRANSPORTATION FACILITY BAGGAGE/CAROUSEL AREA-SPACE FUNCTION SYS-6 FLR-2 SCH-H HPLCMT-NORTH ZN,Zone Air Temperature [C] !Hourly
1753,7,SP-TRANSPORTATION FACILITY BAGGAGE/CAROUSEL AREA-SPACE FUNCTION SYS-6 FLR-2 SCH-H HPLCMT-NORTH ZN,Zone Air Relative Humidity [%] !Daily [Value,Min,Hour,Minute,Max,Hour,Minute]
1792,1,SP-TRANSPORTATION FACILITY TERMINAL TICKET COUNTER-SPACE FUNCTION SYS-6 FLR-2 SCH-H HPLCMT-SOUTH ZN,Zone Air Temperature [C] !Hourly
1793,7,SP-TRANSPORTATION FACILITY TERMINAL TICKET COUNTER-SPACE FUNCTION SYS-6 FLR-2 SCH-H HPLCMT-SOUTH ZN,Zone Air Relative Humidity [%] !Daily [Value,Min,Hour,Minute,Max,Hour,Minute]
1832,1,SP-WAREHOUSE STORAGE AREA MEDIUM TO BULKY PALLETIZED ITEMS-SPACE FUNCTION SYS-4 FLR-2 SCH-A HPLCMT-WEST ZN,Zone Air Temperature [C] !Hourly
1833,7,SP-WAREHOUSE STORAGE AREA MEDIUM TO BULKY PALLETIZED ITEMS-SPACE FUNCTION SYS-4 FLR-2 SCH-A HPLCMT-WEST ZN,Zone Air Relative Humidity [%] !Daily [Value,Min,Hour,Minute,Max,Hour,Minute]
1872,1,SP-WAREHOUSE STORAGE AREA SMALL HAND-CARRIED ITEMS(4)-SPACE FUNCTION SYS-4 FLR-2 SCH-A HPLCMT-EAST ZN,Zone Air Temperature [C] !Hourly
1873,7,SP-WAREHOUSE STORAGE AREA SMALL HAND-CARRIED ITEMS(4)-SPACE FUNCTION SYS-4 FLR-2 SCH-A HPLCMT-EAST ZN,Zone Air Relative Humidity [%] !Daily [Value,Min,Hour,Minute,Max,Hour,Minute]
10,1,Electricity:Facility [J] !TimeStep
878,1,Gas:Facility [J] !TimeStep
End of Data Dictionary
1,FORT MCMURRAY AP ANN CLG .4% CONDNS DB=>MWB,  56.65,-111.22,  -7.00, 369.10
2,1, 7,21, 0, 1, 0.00,10.00,SummerDesignDay
8,14.218136923962174
10,366492800.76423516
878,99426416.47119802
2,1, 7,21, 0, 1,10.00,20.00,SummerDesignDay
8,14.171982153293495
10,365827555.11855116
878,98632185.01398038
2,1, 7,21, 0, 1,20.00,30.00,SummerDesignDay
8,14.125744780286427
10,365164917.08141937
878,98648867.32554232
2,1, 7,21, 0, 1,30.00,40.00,SummerDesignDay
8,14.079436086331978
10,364504914.73490568
878,98663825.33765738
2,1, 7,21, 0, 1,40.00,50.00,SummerDesignDay
8,14.033050387896898
10,363852592.2619744
878,98678544.80250904
2,1, 7,21, 0, 1,50.00,60.00,SummerDesignDay
8,13.986581233564835
10,363198985.7671535
878,98693157.38759056
2,1, 7,21, 0, 1, 0.00,60.00,SummerDesignDay
1112,23.785877049092205
1152,23.790913538580189
1192,24.925956471782617
1232,24.8485685284994
1272,22.77544835648614
1312,22.80178042535343
1352,18.601827214865144
1392,23.24926777414043
1432,22.294049066276786
1472,20.52506946871453
1512,23.937805577289866
1552,22.092274104647588
1592,23.302431491842034
1632,22.960243376290749
1672,23.47859898676083
1712,19.008140152381686
1752,23.652182629689308
1792,23.468273867474918
1832,23.5586232098306
1872,23.334207821923547
2,1, 7,21, 0, 2, 0.00,10.00,SummerDesignDay
8,13.95555882260429
10,297309541.9629592
878,268336057.97426284
2,1, 7,21, 0, 2,10.00,20.00,SummerDesignDay
8,13.924507755336454
10,297840218.30998209
878,96048903.56927733
2,1, 7,21, 0, 2,20.00,30.00,SummerDesignDay
8,13.893416042989206
10,297460101.62097147
878,96051087.25491312
2,1, 7,21, 0, 2,30.00,40.00,SummerDesignDay
8,13.862289589689029
10,298189672.4444211
878,440091311.6093356
2,1, 7,21, 0, 2,40.00,50.00,SummerDesignDay
8,13.831134407608739
10,297528911.9167476
878,96049840.05571062
2,1, 7,21, 0, 2,50.00,60.00,SummerDesignDay
8,13.799938415548118
10,297108507.217252
878,96049180.75831737
2,1, 7,21, 0, 2, 0.00,60.00,SummerDesignDay
1112,23.67571015380325
1152,23.661960692269905
1192,24.800801924394638
1232,24.737373723630893
1272,22.304633320541034
1312,22.45473566793653
1352,18.42343775024847
1392,22.93672886231022
1432,22.1716217528524
1472,20.351411064504249
1512,22.89860975999602
1552,21.97677010032666
1592,22.637009946513797
1632,22.124217816015429
1672,22.741979214569637
1712,18.47365246311919
1752,23.696397611720234
1792,23.512146571842249
1832,23.239931806901
1872,23.042472758410708
2,1, 7,21, 0, 3, 0.00,10.00,SummerDesignDay
8,13.776521671948676
10,235833735.26958255
878,12000.0
2,1, 7,21, 0, 3,10.00,20.00,SummerDesignDay
8,13.753085235778466
10,235512885.88229916
878,39127033.9528177
2,1, 7,21, 0, 3,20.00,30.00,SummerDesignDay
8,13.729636002354969
10,235192997.0921514
878,41053311.690156217
2,1, 7,21, 0, 3,30.00,40.00,SummerDesignDay
8,13.706147375533054
10,234873700.7632374
878,42959003.38008258
2,1, 7,21, 0, 3,40.00,50.00,SummerDesignDay
8,13.682651961920304
10,234555116.1101047
878,4783822.21263187
2,1, 7,21, 0, 3,50.00,60.00,SummerDesignDay
8,13.659136670643687
10,235292313.84396819
878,39159151.81133915
2,1, 7,21, 0, 3, 0.00,60.00,SummerDesignDay
1112,23.55568726236574
1152,23.478100872994575
1192,24.686307725896925
1232,24.63528267811382
1272,21.93600840284931
1312,22.19297061378329
1352,18.233917616724495
1392,22.707824082444007
1432,22.03805815328626
1472,20.17829345658946
1512,21.919268006380148
1552,19.247496807237316
1592,21.499583241889146
1632,21.148962271096406
1672,21.86483117114626
1712,18.344564183982027
1752,23.784961183068476
1792,23.5336135739422
1832,22.993551845743963
1872,22.80447637127237
2,1, 7,21, 0, 4, 0.00,10.00,SummerDesignDay
8,13.63560137410855
10,234975763.2400936
878,45794584.19916361
2,1, 7,21, 0, 4,10.00,20.00,SummerDesignDay
8,13.612040802606578
10,234663476.1281032
878,45828883.229868698
2,1, 7,21, 0, 4,20.00,30.00,SummerDesignDay
8,13.58846620506876
10,234348111.0396244
878,20457581.58504527
2,1, 7,21, 0, 4,30.00,40.00,SummerDesignDay
8,13.56487178447336
10,234035643.22803528
878,27247533.417592493
2,1, 7,21, 0, 4,40.00,50.00,SummerDesignDay
8,13.541257354069103
10,233722911.91437803
878,45775851.959927659
2,1, 7,21, 0, 4,50.00,60.00,SummerDesignDay
8,13.517617463812285
10,233410484.47299768
878,45825042.957820098
2,1, 7,21, 0, 4, 0.00,60.00,SummerDesignDay
1112,23.385755730811327
1152,23.236561447411729
1192,24.55376335714819
1232,24.513509102513763
1272,21.542217698813447
1312,21.919627067623254
1352,18.028332214622055
1392,22.477852148903055
1432,21.838594282115257
1472,20.121619720155896
1512,21.428765175712198
1552,18.004727914047416
1592,20.81588258630018
1632,20.528192309370025
1672,21.303934207486124
1712,18.2707173757081
1752,23.653783459428117
1792,23.450837444490064
1832,22.723225751470605
1872,22.513621200226507
2,1, 7,21, 0, 5, 0.00,10.00,SummerDesignDay
8,13.50185415824011
10,233192409.1941222
878,29670543.425695264
2,1, 7,21, 0, 5,10.00,20.00,SummerDesignDay
8,13.486076034032447
10,232981735.7131527
878,17975441.385860355
2,1, 7,21, 0, 5,20.00,30.00,SummerDesignDay
8,13.470289340350983
10,232773187.76958857
878,45774419.87033701
2,1, 7,21, 0, 5,30.00,40.00,SummerDesignDay
8,13.454493322631063
10,232565120.855315
878,45822619.119008269
2,1, 7,21, 0, 5,40.00,50.00,SummerDesignDay
8,13.438688835118548
10,232357892.55668123
878,37948525.98694822
2,1, 7,21, 0, 5,50.00,60.00,SummerDesignDay
8,13.422888173889437
10,232150448.60288329
878,9077596.592949907
2,1, 7,21, 0, 5, 0.00,60.00,SummerDesignDay
1112,23.269346038541995
1152,23.210017063258204
1192,24.441313328213668
1232,24.4622580819274
1272,21.18960856193146
1312,21.69249187384894
1352,18.100453006075865
1392,22.2915614088578
1432,21.648891515527919
1472,20.006575602744737
1512,21.317906811237767
1552,18.001216809629594
1592,20.59936369386565
1632,20.38199969186495
1672,21.13655919528861
1712,18.215465529400878
1752,23.64529192116767
1792,23.442874052536255
1832,22.492920103624994
1872,22.3410075587886
2,1, 7,21, 0, 6, 0.00,10.00,SummerDesignDay
8,13.438688835118548
10,232313437.56773118
878,45773412.55871146
2,1, 7,21, 0, 6,10.00,20.00,SummerDesignDay
8,13.454493322631063
10,232520822.9754143
878,45820292.1530457
2,1, 7,21, 0, 6,20.00,30.00,SummerDesignDay
8,13.470289340350983
10,232728307.6190455
878,45490443.40220075
2,1, 7,21, 0, 6,30.00,40.00,SummerDesignDay
8,13.486076034032447
10,232936588.44687767
878,453743.46497724027
2,1, 7,21, 0, 6,40.00,50.00,SummerDesignDay
8,13.50185415824011
10,233144598.06989727
878,45772748.903673749
2,1, 7,21, 0, 6,50.00,60.00,SummerDesignDay
8,13.517617463812285
10,233352919.65063826
878,45818041.00448497
2,1, 7,21, 0, 6, 0.00,60.00,SummerDesignDay
1112,23.37232807321301
1152,23.533507123260987
1192,24.357803795780446
1232,24.47857616281712
1272,21.020983776551267
1312,21.578038445475856
1352,18.82122132439554
1392,22.186439457541416
1432,21.47755490469952
1472,19.928159989064438
1512,21.3688291588364
1552,18.000514967844969
1592,20.42882646537957
1632,20.584845834182788
1672,21.003192473704883
1712,18.16648020716809
1752,23.64024115520991
1792,23.437570285464174
1832,22.36629186801976
1872,22.569666857057709
2,1, 7,21, 0, 7, 0.00,10.00,SummerDesignDay
8,13.572736920571789
10,233371410.37111665
878,155846298.26433603
2,1, 7,21, 0, 7,10.00,20.00,SummerDesignDay
8,13.627748229152554
10,232658571.89127378
878,12000.0
2,1, 7,21, 0, 7,20.00,30.00,SummerDesignDay
8,13.682651961920304
10,232869348.98955385
878,42996493.511334877
2,1, 7,21, 0, 7,30.00,40.00,SummerDesignDay
8,13.737448093244995
10,233478139.97311975
878,45806284.64039598
2,1, 7,21, 0, 7,40.00,50.00,SummerDesignDay
8,13.792137011831216
10,234220999.89872194
878,45860970.08202922
2,1, 7,21, 0, 7,50.00,60.00,SummerDesignDay
8,13.846719282840333
10,234968011.20924659
878,12000.0
2,1, 7,21, 0, 7, 0.00,60.00,SummerDesignDay
1112,23.653695581584289
1152,23.756232342826875
1192,22.912574533304754
1232,23.10211927853041
1272,21.180684835948019
1312,21.682898290115927
1352,20.067406581991248
1392,22.152217941572216
1432,21.33856755440938
1472,19.820946636334836
1512,21.538156011558518
1552,18.000276945499345
1592,20.304734416589285
1632,20.813043535910123
1672,20.89128362795395
1712,18.123495974450415
1752,23.671667025746147
1792,23.381882751243084
1832,22.42048189837317
1872,22.968719888472095
2,1, 7,21, 0, 8, 0.00,10.00,SummerDesignDay
8,13.978831900527043
10,263652595.35922746
878,153506273.73660059
2,1, 7,21, 0, 8,10.00,20.00,SummerDesignDay
8,14.110321014287419
10,265179756.4818875
878,44918861.061323698
2,1, 7,21, 0, 8,20.00,30.00,SummerDesignDay
8,14.241191509616986
10,267017311.6453177
878,43117759.68140496
2,1, 7,21, 0, 8,30.00,40.00,SummerDesignDay
8,14.371447531304272
10,270552452.97461
878,1084594.1667246249
2,1, 7,21, 0, 8,40.00,50.00,SummerDesignDay
8,14.501093766564925
10,272940154.3053416
878,45017897.39945815
2,1, 7,21, 0, 8,50.00,60.00,SummerDesignDay
8,14.630134792273804
10,283032818.4692923
878,45930728.052894327
2,1, 7,21, 0, 8, 0.00,60.00,SummerDesignDay
1112,23.980095059140287
1152,23.98748019214162
1192,23.22240018687711
1232,23.424530146453397
1272,21.907534734223586
1312,22.44331908276598
1352,21.96015212052808
1392,22.120880725746916
1432,21.205059354284953
1472,19.99232244536137
1512,21.977589544890109
1552,18.183122759851665
1592,20.369171960053405
1632,21.01178567396506
1672,20.92540159419079
1712,18.82945688668763
1752,23.659302765070739
1792,23.339656099267946
1832,22.890835575367235
1872,23.707901632632987
2,1, 7,21, 0, 9, 0.00,10.00,SummerDesignDay
8,14.773641492809972
10,400770784.5255844
878,248681293.09194074
2,1, 7,21, 0, 9,10.00,20.00,SummerDesignDay
8,14.91640948124148
10,408161179.5268731
878,216438406.76481394
2,1, 7,21, 0, 9,20.00,30.00,SummerDesignDay
8,15.05843890714102
10,417946702.4437343
878,44388072.45393799
2,1, 7,21, 0, 9,30.00,40.00,SummerDesignDay
8,15.199735893563798
10,422943779.74530056
878,88793872.46540714
2,1, 7,21, 0, 9,40.00,50.00,SummerDesignDay
8,15.340306256439395
10,435741434.1185458
878,44402023.155837569
2,1, 7,21, 0, 9,50.00,60.00,SummerDesignDay
8,15.48015101768072
10,442510284.57392576
878,44387745.065041918
2,1, 7,21, 0, 9, 0.00,60.00,SummerDesignDay
1112,23.999692587154418
1152,23.999600234796984
1192,23.985484407984044
1232,23.994956401413803
1272,23.43541386499257
1312,23.756042633508814
1352,23.071708178774988
1392,23.12205204299885
1432,21.750694892324466
1472,20.34003463155592
1512,23.46696463662764
1552,19.928621692599955
1592,21.068901229802216
1632,21.281894872872525
1672,21.489179285993975
1712,18.719740219278305
1752,23.95532593678114
1792,23.89767528221417
1832,23.789691839812435
1872,23.999775222159923
2,1, 7,21, 0,10, 0.00,10.00,SummerDesignDay
8,15.60467292907716
10,559661234.821418
878,271500552.03936186
2,1, 7,21, 0,10,10.00,20.00,SummerDesignDay
8,15.72862731650033
10,568270187.6157154
878,235200039.15773017
2,1, 7,21, 0,10,20.00,30.00,SummerDesignDay
8,15.852017409284228
10,572158925.7289442
878,131660048.04794593
2,1, 7,21, 0,10,30.00,40.00,SummerDesignDay
8,15.974848118364367
10,582349105.0827048
878,128004430.37317752
2,1, 7,21, 0,10,40.00,50.00,SummerDesignDay
8,16.097123145563505
10,591507871.6532477
878,152909107.84802387
2,1, 7,21, 0,10,50.00,60.00,SummerDesignDay
8,16.218846351168599
10,596196260.9882156
878,106623557.75329128
2,1, 7,21, 0,10, 0.00,60.00,SummerDesignDay
1112,23.999541384394687
1152,23.99950601045958
1192,23.9996427293752
1232,23.999625961783548
1272,24.075310207677885
1312,24.032986798361664
1352,23.52792664646705
1392,23.994577657020327
1432,22.069550365147888
1472,20.98848039942015
1512,23.99979153525268
1552,22.04770448358033
1592,22.64665470552249
1632,22.092876632237247
1672,22.69916217794444
1712,18.59091198016343
1752,23.895722962844379
1792,23.817888805551065
1832,23.999940760826829
1872,23.99981481629121
2,1, 7,21, 0,11, 0.00,10.00,SummerDesignDay
8,16.325793027093189
10,638865314.6082704
878,159236715.98958159
2,1, 7,21, 0,11,10.00,20.00,SummerDesignDay
8,16.432322158488288
10,645239715.7855601
878,159936470.74322693
2,1, 7,21, 0,11,20.00,30.00,SummerDesignDay
8,16.538424180249178
10,648383573.3182249
878,152267637.56757225
2,1, 7,21, 0,11,30.00,40.00,SummerDesignDay
8,16.644108396469087
10,652911082.6890986
878,126079687.58290497
2,1, 7,21, 0,11,40.00,50.00,SummerDesignDay
8,16.749376736593655
10,658941009.6157405
878,152877226.5006729
2,1, 7,21, 0,11,50.00,60.00,SummerDesignDay
8,16.854232613237156
10,665762530.0168487
878,159933832.20911727
2,1, 7,21, 0,11, 0.00,60.00,SummerDesignDay
1112,23.99936482817313
1152,23.999369641882539
1192,23.99953077864028
1232,23.999553529651455
1272,24.230993225376623
1312,24.099675194546724
1352,23.577402019971485
1392,23.999720529125125
1432,22.317309505870566
1472,21.573813363285994
1512,23.99965717245061
1552,23.28659044143146
1592,23.863990795676384
1632,22.52763596152555
1672,23.81465220119446
1712,18.50672890603123
1752,23.826946218930673
1792,23.695168591305817
1832,23.999933635487677
1872,23.999820387522616
2,1, 7,21, 0,12, 0.00,10.00,SummerDesignDay
8,16.92390823520069
10,703048055.8751518
878,106442229.65458143
2,1, 7,21, 0,12,10.00,20.00,SummerDesignDay
8,16.99340178950456
10,710128411.3851665
878,144656657.22175763
2,1, 7,21, 0,12,20.00,30.00,SummerDesignDay
8,17.06272006743463
10,713132318.3482772
878,102816051.02155814
2,1, 7,21, 0,12,30.00,40.00,SummerDesignDay
8,17.131853229172639
10,716102128.9519916
878,131316716.33591095
2,1, 7,21, 0,12,40.00,50.00,SummerDesignDay
8,17.200807172194087
10,718920737.4875743
878,119022019.45457462
2,1, 7,21, 0,12,50.00,60.00,SummerDesignDay
8,17.269582116758607
10,721659761.2214879
878,102853895.97805019
2,1, 7,21, 0,12, 0.00,60.00,SummerDesignDay
1112,23.99925947583053
1152,23.999256099910128
1192,23.999386457683369
1232,23.999429707690696
1272,24.262681767666846
1312,24.114353540639006
1352,23.984690670944379
1392,23.999551538633324
1432,22.537724446081744
1472,21.835503349472405
1512,23.99956962035255
1552,23.977576568509105
1592,23.912316504886424
1632,23.076540972370706
1672,23.937910669754758
1712,19.010495405395735
1752,23.790662385568738
1792,23.679324193486555
1832,23.999927478249338
1872,23.99982604779969
2,1, 7,21, 0,13, 0.00,10.00,SummerDesignDay
8,17.32447360221357
10,727859939.5523977
878,156606420.23114113
2,1, 7,21, 0,13,10.00,20.00,SummerDesignDay
8,17.379251291230806
10,731824087.123923
878,157977221.51614
2,1, 7,21, 0,13,20.00,30.00,SummerDesignDay
8,17.433921312061729
10,734379508.1350931
878,128008144.51461843
2,1, 7,21, 0,13,30.00,40.00,SummerDesignDay
8,17.488473222557489
10,735618999.5808272
878,140404404.0517101
2,1, 7,21, 0,13,40.00,50.00,SummerDesignDay
8,17.542913447755134
10,738665975.4397855
878,158093315.29723446
2,1, 7,21, 0,13,50.00,60.00,SummerDesignDay
8,17.59724609886134
10,743980643.1412344
878,158092852.84496234
2,1, 7,21, 0,13, 0.00,60.00,SummerDesignDay
1112,23.999255885349908
1152,23.99921885445674
1192,23.999223241641919
1232,23.999275156166136
1272,24.401670449710765
1312,24.184780373644263
1352,23.999259349309484
1392,23.998839607770266
1432,23.172510860164903
1472,22.042269101502784
1512,23.99919916700081
1552,23.997483926820125
1592,23.78505151534132
1632,23.429082834110348
1672,23.840167348646394
1712,19.727991777266344
1752,23.77653814241131
1792,23.60728449020191
1832,23.99991038964826
1872,23.999787717676566
2,1, 7,21, 0,14, 0.00,10.00,SummerDesignDay
8,17.6311450462694
10,745349412.5811335
878,146186177.92758993
2,1, 7,21, 0,14,10.00,20.00,SummerDesignDay
8,17.665000449016245
10,746861650.9255463
878,142971072.60484524
2,1, 7,21, 0,14,20.00,30.00,SummerDesignDay
8,17.698812743128934
10,748353150.4525416
878,150777404.26857753
2,1, 7,21, 0,14,30.00,40.00,SummerDesignDay
8,17.732582050940107
10,749973917.2830302
878,163249627.41007699
2,1, 7,21, 0,14,40.00,50.00,SummerDesignDay
8,17.766307345121004
10,751660419.9183588
878,163237340.41655577
2,1, 7,21, 0,14,50.00,60.00,SummerDesignDay
8,17.79999023167558
10,753402178.110365
878,163226166.77772943
2,1, 7,21, 0,14, 0.00,60.00,SummerDesignDay
1112,23.99909391742916
1152,23.999116515496544
1192,23.9990390818282
1232,23.999085155296205
1272,24.56582516042624
1312,24.26537823990799
1352,23.99910646879519
1392,23.998168916397068
1432,23.78474472251453
1472,22.185768917312264
1512,23.99885476171019
1552,23.996613608177598
1592,23.435564009126975
1632,23.358091565170395
1672,23.568511929393425
1712,20.357466315637934
1752,23.744606920590568
1792,23.523632350547787
1832,23.999883165407199
1872,23.999727879755175
2,1, 7,21, 0,15, 0.00,10.00,SummerDesignDay
8,17.79999023167558
10,753378727.7320477
878,163214879.56922484
2,1, 7,21, 0,15,10.00,20.00,SummerDesignDay
8,17.79999023167558
10,753277434.2765068
878,160717980.01781119
2,1, 7,21, 0,15,20.00,30.00,SummerDesignDay
8,17.79999023167558
10,753141956.8204954
878,143117988.72781248
2,1, 7,21, 0,15,30.00,40.00,SummerDesignDay
8,17.79999023167558
10,753134076.7425975
878,142900677.28977806
2,1, 7,21, 0,15,40.00,50.00,SummerDesignDay
8,17.79999023167558
10,753203429.4261658
878,156878198.1205908
2,1, 7,21, 0,15,50.00,60.00,SummerDesignDay
8,17.79999023167558
10,753286785.0993806
878,163245511.17577789
2,1, 7,21, 0,15, 0.00,60.00,SummerDesignDay
1112,23.999059904581057
1152,23.998981111590429
1192,23.99890811157896
1232,23.99891594945295
1272,24.57386656650026
1312,24.271974853224067
1352,23.998984458250346
1392,23.998078217773796
1432,23.749215824259083
1472,22.284022882325997
1512,23.998994056719267
1552,23.997016458705678
1592,23.34729436224701
1632,23.286094791081426
1672,23.517605795701728
1712,20.09457190622258
1752,23.734038448498649
1792,23.524231850402147
1832,23.99982274904802
1872,23.999677182205244
2,1, 7,21, 0,16, 0.00,10.00,SummerDesignDay
8,17.759562446305357
10,749395334.5230683
878,154243875.22248579
2,1, 7,21, 0,16,10.00,20.00,SummerDesignDay
8,17.71907809634183
10,746600086.1737901
878,106831937.40209216
2,1, 7,21, 0,16,20.00,30.00,SummerDesignDay
8,17.67853788661001
10,744066880.9005345
878,153301903.34309546
2,1, 7,21, 0,16,30.00,40.00,SummerDesignDay
8,17.63791796367351
10,738406613.7861022
878,135552113.98894445
2,1, 7,21, 0,16,40.00,50.00,SummerDesignDay
8,17.59724609886134
10,739107251.5578982
878,124707325.97988299
2,1, 7,21, 0,16,50.00,60.00,SummerDesignDay
8,17.55650676726033
10,737700790.8561995
878,153308542.58365289
2,1, 7,21, 0,16, 0.00,60.00,SummerDesignDay
1112,23.998968758794815
1152,23.998874641402
1192,23.99887711066816
1232,23.998818789621727
1272,24.54696172171148
1312,24.287736283343805
1352,23.998991539339188
1392,23.99819974021418
1432,23.539340520059274
1472,22.242970981163795
1512,23.999319371372257
1552,23.99808859659376
1592,23.36744873735377
1632,23.187675109334525
1672,23.540995392489636
1712,19.467474345015238
1752,23.735978386623633
1792,23.560570055658834
1832,23.999737726963159
1872,23.999658576621699
2,1, 7,21, 0,17, 0.00,10.00,SummerDesignDay
8,17.50209486331892
10,732412484.7169323
878,100853266.33078797
2,1, 7,21, 0,17,10.00,20.00,SummerDesignDay
8,17.447570789624618
10,729750929.6362772
878,100271321.38244668
2,1, 7,21, 0,17,20.00,30.00,SummerDesignDay
8,17.392929544208135
10,727201555.9213449
878,100316148.33170159
2,1, 7,21, 0,17,30.00,40.00,SummerDesignDay
8,17.33818013976614
10,723789696.9849753
878,141499323.84720648
2,1, 7,21, 0,17,40.00,50.00,SummerDesignDay
8,17.283317298559309
10,720990583.3040073
878,102618632.81106813
2,1, 7,21, 0,17,50.00,60.00,SummerDesignDay
8,17.22833552437677
10,718236127.5367187
878,100239381.03533258
2,1, 7,21, 0,17, 0.00,60.00,SummerDesignDay
1112,23.999105806708273
1152,23.998936442959438
1192,23.99886619206312
1232,23.998746641272374
1272,24.900237032733857
1312,24.62523253876877
1352,23.99905682050674
1392,23.998013801303484
1432,23.53266575052071
1472,22.266513216326513
1512,23.9995091358727
1552,23.998713047202118
1592,23.396836134448056
1632,23.18393534172318
1672,23.487192378059217
1712,19.150027756337175
1752,23.724998138369246
1792,23.555822537001146
1832,23.999657643653028
1872,23.99963659266373
2,1, 7,21, 0,18, 0.00,10.00,SummerDesignDay
8,17.159453019160176
10,703979701.7861208
878,97343651.1668575
2,1, 7,21, 0,18,10.00,20.00,SummerDesignDay
8,17.090391773337136
10,700440555.7569628
878,97031542.65457097
2,1, 7,21, 0,18,20.00,30.00,SummerDesignDay
8,17.021151077964786
10,697403408.1002601
878,97029811.61521277
2,1, 7,21, 0,18,30.00,40.00,SummerDesignDay
8,16.951729380464653
10,694193837.6320834
878,97028051.36642325
2,1, 7,21, 0,18,40.00,50.00,SummerDesignDay
8,16.882126503829249
10,687247997.6510341
878,97026292.63343656
2,1, 7,21, 0,18,50.00,60.00,SummerDesignDay
8,16.812341807494034
10,684439379.7875041
878,97024530.9088102
2,1, 7,21, 0,18, 0.00,60.00,SummerDesignDay
1112,23.99928000323548
1152,23.999138768736996
1192,23.998951069459868
1232,23.998820005552515
1272,24.681701934507186
1312,24.37745480016009
1352,23.987712048944123
1392,23.998168966087719
1432,23.66590556716227
1472,22.32371307151631
1512,23.999551930932033
1552,23.976716621583795
1592,23.277447582890507
1632,23.248137745070627
1672,23.45999323133603
1712,19.158350495519227
1752,23.690171692926897
1792,23.507694716111219
1832,23.999632320131267
1872,23.999649773270688
2,1, 7,21, 0,19, 0.00,10.00,SummerDesignDay
8,16.707321072823203
10,616231974.9442092
878,97309229.49369067
2,1, 7,21, 0,19,10.00,20.00,SummerDesignDay
8,16.601881826644556
10,609370725.5548326
878,97340546.03836228
2,1, 7,21, 0,19,20.00,30.00,SummerDesignDay
8,16.496030555252849
10,605733536.6561606
878,97340363.25536844
2,1, 7,21, 0,19,30.00,40.00,SummerDesignDay
8,16.389760181474104
10,600330813.9748708
878,97340233.4154348
2,1, 7,21, 0,19,40.00,50.00,SummerDesignDay
8,16.283067654262039
10,589583699.7057495
878,97340105.0651402
2,1, 7,21, 0,19,50.00,60.00,SummerDesignDay
8,16.17595057957811
10,585512689.1684967
878,97339977.88905424
2,1, 7,21, 0,19, 0.00,60.00,SummerDesignDay
1112,23.999660217706464
1152,23.99959461305563
1192,23.999411054655128
1232,23.999336949678555
1272,24.392643924824275
1312,24.18832075761652
1352,23.708169305925339
1392,23.99878906252378
1432,23.817508459407497
1472,22.22272103862362
1512,23.99944665075945
1552,23.407835585165825
1592,23.30739997793381
1632,23.524238031618024
1672,23.487692597044228
1712,19.473329986324868
1752,23.690819296786747
1792,23.519650601655188
1832,23.99972200273034
1872,23.999799810992518
2,1, 7,21, 0,20, 0.00,10.00,SummerDesignDay
8,16.097123145563505
10,527019405.0635285
878,98285325.52215517
2,1, 7,21, 0,20,10.00,20.00,SummerDesignDay
8,16.018070242471564
10,522971529.15837177
878,98400038.05507437
2,1, 7,21, 0,20,20.00,30.00,SummerDesignDay
8,15.938779752340516
10,519499699.4192725
878,98410689.6482227
2,1, 7,21, 0,20,30.00,40.00,SummerDesignDay
8,15.85926152575189