Program Version,EnergyPlus, Version 8.9.0-eba93e8e1b, YMD=2019.03.22 18:49
1,5,Environment Title[],Latitude[deg],Longitude[deg],Time Zone[],Elevation[m]
2,8,Day of Simulation[],Month[],Day of Month[],DST Indicator[1=yes 0=no],Hour[],StartMinute[],EndMinute[],DayType
3,5,Cumulative Day of Simulation[],Month[],Day of Month[],DST Indicator[1=yes 0=no],DayType  ! When Daily Report Variables Requested
4,2,Cumulative Days of Simulation[],Month[]  ! When Monthly Report Variables Requested
5,1,Cumulative Days of Simulation[] ! When Run Period Report Variables Requested
6,1,Calendar Year of Simulation[] ! When Annual Report Variables Requested
7,9,Environment,Site Outdoor Air Drybulb Temperature [C] !Monthly [Value,Min,Day,Hour,Minute,Max,Day,Hour,Minute]
8,1,Environment,Site Outdoor Air Wetbulb Temperature [C] !TimeStep
555,1,SP-CONVENTION CENTRE EXHIBIT SPACE-SPACE FUNCTION SYS-3 FLR-1 SCH-C HPLCMT-EAST ZN,Zone Air Temperature [C] !Hourly
556,7,SP-CONVENTION CENTRE EXHIBIT SPACE-SPACE FUNCTION SYS-3 FLR-1 SCH-C HPLCMT-EAST ZN,Zone Air Relative Humidity [%] !Daily [Value,Min,Hour,Minute,Max,Hour,Minute]
595,1,SP-DORMITORY LIVING QUARTERS-SPACE FUNCTION SYS-3 FLR-1 SCH-G HPLCMT-NORTH ZN,Zone Air Temperature [C] !Hourly
596,7,SP-DORMITORY LIVING QUARTERS-SPACE FUNCTION SYS-3 FLR-1 SCH-G HPLCMT-NORTH ZN,Zone Air Relative Humidity [%] !Daily [Value,Min,Hour,Minute,Max,Hour,Minute]
635,1,SP-DWELLING UNITS GENERAL-SPACE FUNCTION SYS-1 FLR-1 SCH-G HPLCMT-WEST ZN,Zone Air Temperature [C] !Hourly
636,7,SP-DWELLING UNITS GENERAL-SPACE FUNCTION SYS-1 FLR-1 SCH-G HPLCMT-WEST ZN,Zone Air Relative Humidity [%] !Daily [Value,Min,Hour,Minute,Max,Hour,Minute]
675,1,SP-WASHROOM - SPACE DESIGNED TO ANSI/IES RP-28 (USED PRIMARILY BY RESIDENTS)-SCH-D-SPACE FUNCTION SYS-3 FLR-1 SCH-D HPLCMT-CORE ZN,Zone Air Temperature [C] !Hourly
676,7,SP-WASHROOM - SPACE DESIGNED TO ANSI/IES RP-28 (USED PRIMARILY BY RESIDENTS)-SCH-D-SPACE FUNCTION SYS-3 FLR-1 SCH-D HPLCMT-CORE ZN,Zone Air Relative Humidity [%] !Daily [Value,Min,Hour,Minute,Max,Hour,Minute]
715,1,SP-WORKSHOP-SPACE FUNCTION SYS-3 FLR-1 SCH-A HPLCMT-SOUTH ZN,Zone Air Temperature [C] !Hourly
716,7,SP-WORKSHOP-SPACE FUNCTION SYS-3 FLR-1 SCH-A HPLCMT-SOUTH ZN,Zone Air Relative Humidity [%] !Daily [Value,Min,Hour,Minute,Max,Hour,Minute]
10,1,Electricity:Facility [J] !TimeStep
321,1,Gas:Facility [J] !TimeStep
End of Data Dictionary
1,FORT MCMURRAY AP ANN CLG .4% CONDNS DB=>MWB,  56.65,-111.22,  -7.00, 369.10
2,1, 7,21, 0, 1, 0.00,10.00,SummerDesignDay
8,14.218136923962174
10,23422002.708379806
321,12000.0
2,1, 7,21, 0, 1,10.00,20.00,SummerDesignDay
8,14.171982153293495
10,23494821.45493539
321,612892.3050243845
2,1, 7,21, 0, 1,20.00,30.00,SummerDesignDay
8,14.125744780286427
10,23398395.914891278
321,19075513.322762699
2,1, 7,21, 0, 1,30.00,40.00,SummerDesignDay
8,14.079436086331978
10,23398354.630891079
321,59913.25334602915
2,1, 7,21, 0, 1,40.00,50.00,SummerDesignDay
8,14.033050387896898
10,23368116.417584305
321,14136650.345041542
2,1, 7,21, 0, 1,50.00,60.00,SummerDesignDay
8,13.986581233564835
10,23345815.49429812
321,7090062.317206172
2,1, 7,21, 0, 1, 0.00,60.00,SummerDesignDay
555,21.416410221584966
595,23.977064540025585
635,23.87926033664613
675,21.938697145143807
715,23.235755568859845
2,1, 7,21, 0, 2, 0.00,10.00,SummerDesignDay
8,13.95555882260429
10,18793751.226089203
321,268885.3160561513
2,1, 7,21, 0, 2,10.00,20.00,SummerDesignDay
8,13.924507755336454
10,18688527.187488326
321,319905.0228925096
2,1, 7,21, 0, 2,20.00,30.00,SummerDesignDay
8,13.893416042989206
10,18649942.97477447
321,18131657.157735204
2,1, 7,21, 0, 2,30.00,40.00,SummerDesignDay
8,13.862289589689029
10,18628054.921018639
321,421949.09997464399
2,1, 7,21, 0, 2,40.00,50.00,SummerDesignDay
8,13.831134407608739
10,18606251.263420844
321,472970.70547077737
2,1, 7,21, 0, 2,50.00,60.00,SummerDesignDay
8,13.799938415548118
10,18582348.318643206
321,523992.0656449631
2,1, 7,21, 0, 2, 0.00,60.00,SummerDesignDay
555,20.91922731122751
595,23.514402124114
635,23.87881809545114
675,21.403193419952925
715,22.757379455940197
2,1, 7,21, 0, 3, 0.00,10.00,SummerDesignDay
8,13.776521671948676
10,18563373.694677347
321,18455185.098741499
2,1, 7,21, 0, 3,10.00,20.00,SummerDesignDay
8,13.753085235778466
10,18545135.2516952
321,601809.6838072141
2,1, 7,21, 0, 3,20.00,30.00,SummerDesignDay
8,13.729636002354969
10,18531798.506580265
321,640075.2110860749
2,1, 7,21, 0, 3,30.00,40.00,SummerDesignDay
8,13.706147375533054
10,18528795.239466929
321,678340.6327176961
2,1, 7,21, 0, 3,40.00,50.00,SummerDesignDay
8,13.682651961920304
10,18528795.239466929
321,6729313.74510593
2,1, 7,21, 0, 3,50.00,60.00,SummerDesignDay
8,13.659136670643687
10,18528795.239466929
321,13596002.589241453
2,1, 7,21, 0, 3, 0.00,60.00,SummerDesignDay
555,20.541523121411
595,22.967195788228968
635,23.87752232881512
675,21.015916509237369
715,22.371217603841904
2,1, 7,21, 0, 4, 0.00,10.00,SummerDesignDay
8,13.63560137410855
10,18528795.239466929
321,793136.3518252119
2,1, 7,21, 0, 4,10.00,20.00,SummerDesignDay
8,13.612040802606578
10,18528795.239466929
321,831401.4038225528
2,1, 7,21, 0, 4,20.00,30.00,SummerDesignDay
8,13.58846620506876
10,18528795.239466929
321,869666.3667453528
2,1, 7,21, 0, 4,30.00,40.00,SummerDesignDay
8,13.56487178447336
10,18528795.239466929
321,18597960.22423658
2,1, 7,21, 0, 4,40.00,50.00,SummerDesignDay
8,13.541257354069103
10,18528795.239466929
321,946196.0479346168
2,1, 7,21, 0, 4,50.00,60.00,SummerDesignDay
8,13.517617463812285
10,18528795.239466929
321,984460.7468005706
2,1, 7,21, 0, 4, 0.00,60.00,SummerDesignDay
555,20.24292031729971
595,22.651977988087084
635,23.839523649708469
675,20.72480900498721
715,22.084881521042488
2,1, 7,21, 0, 5, 0.00,10.00,SummerDesignDay
8,13.50185415824011
10,18528795.239466929
321,1011252.2129945334
2,1, 7,21, 0, 5,10.00,20.00,SummerDesignDay
8,13.486076034032447
10,18528795.239466929
321,18861150.14018621
2,1, 7,21, 0, 5,20.00,30.00,SummerDesignDay
8,13.470289340350983
10,18528795.239466929
321,1062272.3541512069
2,1, 7,21, 0, 5,30.00,40.00,SummerDesignDay
8,13.454493322631063
10,18528795.239466929
321,1087781.9848042916
2,1, 7,21, 0, 5,40.00,50.00,SummerDesignDay
8,13.438688835118548
10,18528795.239466929
321,1113291.5782643657
2,1, 7,21, 0, 5,50.00,60.00,SummerDesignDay
8,13.422888173889437
10,18528795.239466929
321,15595555.419218276
2,1, 7,21, 0, 5, 0.00,60.00,SummerDesignDay
555,19.99400652688899
595,22.438804919184809
635,23.784516472834214
675,20.49185876971411
715,21.852916411759386
2,1, 7,21, 0, 6, 0.00,10.00,SummerDesignDay
8,13.438688835118548
10,18528795.239466929
321,5480218.92399705
2,1, 7,21, 0, 6,10.00,20.00,SummerDesignDay
8,13.454493322631063
10,18528795.239466929
321,1092890.3169936615
2,1, 7,21, 0, 6,20.00,30.00,SummerDesignDay
8,13.470289340350983
10,18528795.239466929
321,1067380.7216779923
2,1, 7,21, 0, 6,30.00,40.00,SummerDesignDay
8,13.486076034032447
10,18528795.239466929
321,1041871.0913614709
2,1, 7,21, 0, 6,40.00,50.00,SummerDesignDay
8,13.50185415824011
10,18528795.239466929
321,18629334.562367876
2,1, 7,21, 0, 6,50.00,60.00,SummerDesignDay
8,13.517617463812285
10,18528795.239466929
321,990851.7134339643
2,1, 7,21, 0, 6, 0.00,60.00,SummerDesignDay
555,19.87328803797149
595,22.32008120123805
635,23.735550660950709
675,20.3627711909248
715,21.712165741473514
2,1, 7,21, 0, 7, 0.00,10.00,SummerDesignDay
8,13.572736920571789
10,20599547.52223544
321,17995443.073955619
2,1, 7,21, 0, 7,10.00,20.00,SummerDesignDay
8,13.627748229152554
10,20599547.52223544
321,5383012.042168297
2,1, 7,21, 0, 7,20.00,30.00,SummerDesignDay
8,13.682651961920304
10,20937837.06840631
321,21531478.32412557
2,1, 7,21, 0, 7,30.00,40.00,SummerDesignDay
8,13.737448093244995
10,21087985.21639361
321,15205135.248215093
2,1, 7,21, 0, 7,40.00,50.00,SummerDesignDay
8,13.792137011831216
10,20937073.261493926
321,8352496.115190425
2,1, 7,21, 0, 7,50.00,60.00,SummerDesignDay
8,13.846719282840333
10,21007844.70821513
321,21276141.495228225
2,1, 7,21, 0, 7, 0.00,60.00,SummerDesignDay
555,20.025819568714558
595,22.584381024388134
635,23.850248555853086
675,20.445929923441019
715,21.67355530268159
2,1, 7,21, 0, 8, 0.00,10.00,SummerDesignDay
8,13.978831900527043
10,36450079.783991839
321,46250251.19632112
2,1, 7,21, 0, 8,10.00,20.00,SummerDesignDay
8,14.110321014287419
10,37254542.92419106
321,41072092.9200688
2,1, 7,21, 0, 8,20.00,30.00,SummerDesignDay
8,14.241191509616986
10,37252925.7598927
321,58940869.7515432
2,1, 7,21, 0, 8,30.00,40.00,SummerDesignDay
8,14.371447531304272
10,38119924.888290558
321,42615079.86497895
2,1, 7,21, 0, 8,40.00,50.00,SummerDesignDay
8,14.501093766564925
10,39671883.85555611
321,57540216.24074179
2,1, 7,21, 0, 8,50.00,60.00,SummerDesignDay
8,14.630134792273804
10,38514053.83319336
321,45692175.4689796
2,1, 7,21, 0, 8, 0.00,60.00,SummerDesignDay
555,20.635959516047874
595,23.632775411938707
635,23.907154567019267
675,20.893156663290087
715,22.587771363239754
2,1, 7,21, 0, 9, 0.00,10.00,SummerDesignDay
8,14.773641492809972
10,67223605.11581782
321,84540665.42647445
2,1, 7,21, 0, 9,10.00,20.00,SummerDesignDay
8,14.91640948124148
10,69916838.12555267
321,39472468.51204045
2,1, 7,21, 0, 9,20.00,30.00,SummerDesignDay
8,15.05843890714102
10,72573369.99242953
321,49350989.94663629
2,1, 7,21, 0, 9,30.00,40.00,SummerDesignDay
8,15.199735893563798
10,72167384.92656805
321,49703245.97519364
2,1, 7,21, 0, 9,40.00,50.00,SummerDesignDay
8,15.340306256439395
10,73013213.20623699
321,39645780.256625998
2,1, 7,21, 0, 9,50.00,60.00,SummerDesignDay
8,15.48015101768072
10,75511842.99442375
321,52496604.19140571
2,1, 7,21, 0, 9, 0.00,60.00,SummerDesignDay
555,23.204976839253179
595,23.998702984688199
635,23.934601041043668
675,22.548346701910366
715,23.938417284824359
2,1, 7,21, 0,10, 0.00,10.00,SummerDesignDay
8,15.60467292907716
10,94019690.6277184
321,38124012.5517327
2,1, 7,21, 0,10,10.00,20.00,SummerDesignDay
8,15.72862731650033
10,97292658.06487273
321,37479050.212100628
2,1, 7,21, 0,10,20.00,30.00,SummerDesignDay
8,15.852017409284228
10,100967846.4749889
321,33586591.25257505
2,1, 7,21, 0,10,30.00,40.00,SummerDesignDay
8,15.974848118364367
10,100498399.94378445
321,32780970.02959616
2,1, 7,21, 0,10,40.00,50.00,SummerDesignDay
8,16.097123145563505
10,101894411.00798802
321,32768813.380816875
2,1, 7,21, 0,10,50.00,60.00,SummerDesignDay
8,16.218846351168599
10,102481073.57700844
321,32754380.864521777
2,1, 7,21, 0,10, 0.00,60.00,SummerDesignDay
555,23.99938384651583
595,23.999066411216164
635,23.896055376734478
675,23.940185053678524
715,23.999003893050184
2,1, 7,21, 0,11, 0.00,10.00,SummerDesignDay
8,16.325793027093189
10,103757290.75898026
321,29787290.258590159
2,1, 7,21, 0,11,10.00,20.00,SummerDesignDay
8,16.432322158488288
10,104097919.67592013
321,29409483.52487097
2,1, 7,21, 0,11,20.00,30.00,SummerDesignDay
8,16.538424180249178
10,104594667.42895809
321,29398430.46330147
2,1, 7,21, 0,11,30.00,40.00,SummerDesignDay
8,16.644108396469087
10,105073439.45606549
321,29387201.474809138
2,1, 7,21, 0,11,40.00,50.00,SummerDesignDay
8,16.749376736593655
10,105518132.63491725
321,29375814.8316923
2,1, 7,21, 0,11,50.00,60.00,SummerDesignDay
8,16.854232613237156
10,105944180.12895477
321,31288249.88589859
2,1, 7,21, 0,11, 0.00,60.00,SummerDesignDay
555,23.99912552277209
595,23.998923222651205
635,23.871235592255048
675,23.999262807236538
715,23.99888493944439
2,1, 7,21, 0,12, 0.00,10.00,SummerDesignDay
8,16.92390823520069
10,106245834.91561918
321,24021873.71316121
2,1, 7,21, 0,12,10.00,20.00,SummerDesignDay
8,16.99340178950456
10,105921994.37321802
321,23406209.745141705
2,1, 7,21, 0,12,20.00,30.00,SummerDesignDay
8,17.06272006743463
10,106194250.80390951
321,23462700.95634376
2,1, 7,21, 0,12,30.00,40.00,SummerDesignDay
8,17.131853229172639
10,106446955.14289402
321,19722375.296218669
2,1, 7,21, 0,12,40.00,50.00,SummerDesignDay
8,17.200807172194087
10,106697104.5418983
321,11169957.790715827
2,1, 7,21, 0,12,50.00,60.00,SummerDesignDay
8,17.269582116758607
10,106944165.12524478
321,17780659.283917808
2,1, 7,21, 0,12, 0.00,60.00,SummerDesignDay
555,23.998927724815827
595,23.99927188150424
635,23.873257544485687
675,23.999373050772019
715,23.998838116063394
2,1, 7,21, 0,13, 0.00,10.00,SummerDesignDay
8,17.32447360221357
10,107095118.4819342
321,24296813.62909611
2,1, 7,21, 0,13,10.00,20.00,SummerDesignDay
8,17.379251291230806
10,107285762.75876136
321,24443738.377486886
2,1, 7,21, 0,13,20.00,30.00,SummerDesignDay
8,17.433921312061729
10,107474924.659912
321,24482023.664531299
2,1, 7,21, 0,13,30.00,40.00,SummerDesignDay
8,17.488473222557489
10,107656562.63098489
321,24369556.962593788
2,1, 7,21, 0,13,40.00,50.00,SummerDesignDay
8,17.542913447755134
10,107836982.91598165
321,15602584.384341464
2,1, 7,21, 0,13,50.00,60.00,SummerDesignDay
8,17.59724609886134
10,108016181.50939338
321,15357989.266250981
2,1, 7,21, 0,13, 0.00,60.00,SummerDesignDay
555,23.99852413057137
595,23.999438222134626
635,23.874056408729243
675,23.9994196556403
715,23.998953128478204
2,1, 7,21, 0,14, 0.00,10.00,SummerDesignDay
8,17.6311450462694
10,108133408.4443244
321,19977585.58007119
2,1, 7,21, 0,14,10.00,20.00,SummerDesignDay
8,17.665000449016245
10,108248663.81148169
321,24403447.116290355
2,1, 7,21, 0,14,20.00,30.00,SummerDesignDay
8,17.698812743128934
10,108359033.48420686
321,24437597.247749628
2,1, 7,21, 0,14,30.00,40.00,SummerDesignDay
8,17.732582050940107
10,108469555.40525638
321,24475295.21614163
2,1, 7,21, 0,14,40.00,50.00,SummerDesignDay
8,17.766307345121004
10,108578167.51100113
321,24512997.2414422
2,1, 7,21, 0,14,50.00,60.00,SummerDesignDay
8,17.79999023167558
10,108685914.91558287
321,17072485.226982844
2,1, 7,21, 0,14, 0.00,60.00,SummerDesignDay
555,23.998033072429157
595,23.999507829923365
635,23.87420757528967
675,23.999434174252135
715,23.999046140017176
2,1, 7,21, 0,15, 0.00,10.00,SummerDesignDay
8,17.79999023167558
10,108916273.09582809
321,24486843.599386015
2,1, 7,21, 0,15,10.00,20.00,SummerDesignDay
8,17.79999023167558
10,109265588.21902779
321,25219900.402553783
2,1, 7,21, 0,15,20.00,30.00,SummerDesignDay
8,17.79999023167558
10,109277976.66554639
321,25195799.501877589
2,1, 7,21, 0,15,30.00,40.00,SummerDesignDay
8,17.79999023167558
10,109295613.70098049
321,25172663.957975069
2,1, 7,21, 0,15,40.00,50.00,SummerDesignDay
8,17.79999023167558
10,109311928.87444552
321,25149025.383351417
2,1, 7,21, 0,15,50.00,60.00,SummerDesignDay
8,17.79999023167558
10,109325735.19610201
321,28664807.026321949
2,1, 7,21, 0,15, 0.00,60.00,SummerDesignDay
555,23.997797470562757
595,23.999457622320248
635,23.87422046486901
675,23.999412431052347
715,23.998860370069097
2,1, 7,21, 0,16, 0.00,10.00,SummerDesignDay
8,17.759562446305357
10,109204268.32420258
321,43211660.79730992
2,1, 7,21, 0,16,10.00,20.00,SummerDesignDay
8,17.71907809634183
10,109740032.36095466
321,45953503.65897262
2,1, 7,21, 0,16,20.00,30.00,SummerDesignDay
8,17.67853788661001
10,109617624.40569447
321,39535539.99491975
2,1, 7,21, 0,16,30.00,40.00,SummerDesignDay
8,17.63791796367351
10,109501262.47631626
321,35953598.407351169
2,1, 7,21, 0,16,40.00,50.00,SummerDesignDay
8,17.59724609886134
10,109386854.36224835
321,35921851.08401775
2,1, 7,21, 0,16,50.00,60.00,SummerDesignDay
8,17.55650676726033
10,109272068.24673905
321,35887883.59753265
2,1, 7,21, 0,16, 0.00,60.00,SummerDesignDay
555,23.997633923736534
595,23.999193942586336
635,23.874035143593774
675,23.999361320943377
715,23.998623887445747
2,1, 7,21, 0,17, 0.00,10.00,SummerDesignDay
8,17.50209486331892
10,105328552.37477079
321,34804823.663753
2,1, 7,21, 0,17,10.00,20.00,SummerDesignDay
8,17.447570789624618
10,105080521.79313343
321,40792619.24648252
2,1, 7,21, 0,17,20.00,30.00,SummerDesignDay
8,17.392929544208135
10,104826996.56750104
321,42025814.96856
2,1, 7,21, 0,17,30.00,40.00,SummerDesignDay
8,17.33818013976614
10,104501031.295313
321,42112046.58873291
2,1, 7,21, 0,17,40.00,50.00,SummerDesignDay
8,17.283317298559309
10,104301228.92002474
321,39052983.40674677
2,1, 7,21, 0,17,50.00,60.00,SummerDesignDay
8,17.22833552437677
10,104095568.27839276
321,34780465.84983472
2,1, 7,21, 0,17, 0.00,60.00,SummerDesignDay
555,23.99727789137567
595,23.99888505060591
635,23.875928934062939
675,23.999536690307367
715,23.998543044177784
2,1, 7,21, 0,18, 0.00,10.00,SummerDesignDay
8,17.159453019160176
10,88906638.13378823
321,39807257.62881274
2,1, 7,21, 0,18,10.00,20.00,SummerDesignDay
8,17.090391773337136
10,89044034.94739066
321,56249108.27334614
2,1, 7,21, 0,18,20.00,30.00,SummerDesignDay
8,17.021151077964786
10,88589896.28709245
321,43449044.43703788
2,1, 7,21, 0,18,30.00,40.00,SummerDesignDay
8,16.951729380464653
10,88274649.21300529
321,40207126.115097958
2,1, 7,21, 0,18,40.00,50.00,SummerDesignDay
8,16.882126503829249
10,87946193.65959443
321,58940869.7515432
2,1, 7,21, 0,18,50.00,60.00,SummerDesignDay
8,16.812341807494034
10,87598372.56758386
321,40257351.809339378
2,1, 7,21, 0,18, 0.00,60.00,SummerDesignDay
555,23.997467884726274
595,23.998548133281536
635,23.873949769960203
675,23.999852819182839
715,23.998806440484697
2,1, 7,21, 0,19, 0.00,10.00,SummerDesignDay
8,16.707321072823203
10,82397792.5419986
321,49951515.01927774
2,1, 7,21, 0,19,10.00,20.00,SummerDesignDay
8,16.601881826644556
10,81750737.48977727
321,49546510.73657039
2,1, 7,21, 0,19,20.00,30.00,SummerDesignDay
8,16.496030555252849
10,81319763.29545515
321,39657970.2434834
2,1, 7,21, 0,19,30.00,40.00,SummerDesignDay
8,16.389760181474104
10,80742720.4871559
321,53190358.30510101
2,1, 7,21, 0,19,40.00,50.00,SummerDesignDay
8,16.283067654262039
10,80256629.98087709
321,46196267.16792518
2,1, 7,21, 0,19,50.00,60.00,SummerDesignDay
8,16.17595057957811
10,79700740.30264433
321,39648645.048049028
2,1, 7,21, 0,19, 0.00,60.00,SummerDesignDay
555,23.99795352760121
595,23.997064684759708
635,23.878851342817666
675,23.999909528215129
715,23.99954196812114
2,1, 7,21, 0,20, 0.00,10.00,SummerDesignDay
8,16.097123145563505
10,78202765.33438608
321,27584301.008349126
2,1, 7,21, 0,20,10.00,20.00,SummerDesignDay
8,16.018070242471564
10,77579156.75820779
321,25989879.3526829
2,1, 7,21, 0,20,20.00,30.00,SummerDesignDay
8,15.938779752340516
10,77005129.83604642
321,28859719.254641985
2,1, 7,21, 0,20,30.00,40.00,SummerDesignDay
8,15.85926152575189
10,76579179.72719196
321,28865891.40394699
2,1, 7,21, 0,20,40.00,50.00,SummerDesignDay
8,15.779503718563929
10,76131908.66002764
321,28873595.420240109
2,1, 7,21, 0,20,50.00,60.00,SummerDesignDay
8,15.699515709672767
10,75680116.66335517
321,28881398.48145546
2,1, 7,21, 0,20, 0.00,60.00,SummerDesignDay
555,23.999106140949569
595,23.997215353382044
635,23.886626928591644
675,23.999844371061426
715,23.99988349138664
2,1, 7,21, 0,21, 0.00,10.00,SummerDesignDay
8,15.63389147320404
10,70772215.41365667
321,28889223.586541404
2,1, 7,21, 0,21,10.00,20.00,SummerDesignDay
8,15.56810827419793
10,70291687.33901139
321,28897069.776626015
2,1, 7,21, 0,21,20.00,30.00,SummerDesignDay
8,15.502170882753524
10,69881010.17685597
321,28904936.20333562
2,1, 7,21, 0,21,30.00,40.00,SummerDesignDay
8,15.436068032613852
10,69463020.84149185
321,28912822.00772373
2,1, 7,21, 0,21,40.00,50.00,SummerDesignDay
8,15.369804371206009
10,69038851.62586665
321,28920726.317663377
2,1, 7,21, 0,21,50.00,60.00,SummerDesignDay
8,15.303384603594449
10,68611062.58954066
321,26534640.278161169
2,1, 7,21, 0,21, 0.00,60.00,SummerDesignDay
555,23.99950014357556
595,23.99623287014794
635,23.884915269824146
675,23.999853498535108
715,23.99994251794189
2,1, 7,21, 0,22, 0.00,10.00,SummerDesignDay
8,15.236797685071274
10,48249936.45740566
321,2295822.985767853
2,1, 7,21, 0,22,10.00,20.00,SummerDesignDay
8,15.170047891787942
10,47427792.902367968
321,21055511.008753629
2,1, 7,21, 0,22,20.00,30.00,SummerDesignDay
8,15.103134826860483
10,47208202.24951561
321,21193043.913946798
2,1, 7,21, 0,22,30.00,40.00,SummerDesignDay
8,15.036063385178485
10,46985730.82572407
321,12000.0
2,1, 7,21, 0,22,40.00,50.00,SummerDesignDay
8,14.968821767219835
10,46768925.293094489
321,21052382.49979335
2,1, 7,21, 0,22,50.00,60.00,SummerDesignDay
8,14.90141525878635
10,46562278.75875989
321,21169870.856171356
2,1, 7,21, 0,22, 0.00,60.00,SummerDesignDay
555,23.491556596443116
595,23.997004517682684
635,23.8848725648507
675,23.99988598061564
715,24.00774799306736
2,1, 7,21, 0,23, 0.00,10.00,SummerDesignDay
8,14.848873673278373
10,38106409.53620849
321,821253.6427584693
2,1, 7,21, 0,23,10.00,20.00,SummerDesignDay
8,14.796237168136719
10,37992339.28516732
321,20177723.189994165
2,1, 7,21, 0,23,20.00,30.00,SummerDesignDay
8,14.743494321455645
10,37901361.0256924
321,20893868.210487416
2,1, 7,21, 0,23,30.00,40.00,SummerDesignDay
8,14.690649975253665
10,37807339.37765297
321,12000.0
2,1, 7,21, 0,23,40.00,50.00,SummerDesignDay
8,14.637704281233117
10,37718528.222991559
321,20769198.632761994
2,1, 7,21, 0,23,50.00,60.00,SummerDesignDay
8,14.584656914839757
10,37638691.10406223
321,20912257.65009068
2,1, 7,21, 0,23, 0.00,60.00,SummerDesignDay
555,22.654733536632987
595,23.997724205610465
635,23.884532776328
675,23.72547234731397
715,23.928853208763085
2,1, 7,21, 0,24, 0.00,10.00,SummerDesignDay
8,14.531507212058875
10,30342863.516963237
321,12000.0
2,1, 7,21, 0,24,10.00,20.00,SummerDesignDay
8,14.47825496413355
10,29939678.355279246
321,2934478.9006238265
2,1, 7,21, 0,24,20.00,30.00,SummerDesignDay
8,14.4249000133173
10,29819033.52707733
321,16794411.587496588
2,1, 7,21, 0,24,30.00,40.00,SummerDesignDay
8,14.371447531304272
10,29728075.293679809
321,452673.49956694585
2,1, 7,21, 0,24,40.00,50.00,SummerDesignDay
8,14.31788619902223
10,29619669.796276515
321,19160994.153247667
2,1, 7,21, 0,24,50.00,60.00,SummerDesignDay
8,14.264220970176066
10,29503853.430297756
321,463044.5643328885
2,1, 7,21, 0,24, 0.00,60.00,SummerDesignDay
555,22.007746289773846
595,23.998457595075967
635,23.883912609136478
675,22.77739816255473
715,23.68333264505698
3,1, 7,21, 0,SummerDesignDay
556,51.48381884363267,44.723763772492969,10,60,58.27708894458268, 6,30
596,61.00482968018026,56.644135120983467, 1,40,66.50768668241246,19,60
636,59.86366394015035,53.67071123579835,24,60,66.24675751176136,18,60
676,49.00815910564028,44.52092685586233,22,10,56.4014530941962, 6,50
716,47.33280889257559,44.143867040255077,11,10,52.20761511016793, 7,50
4,1, 7
7,22.2505,16.5,21, 5,60,28.9,21,14,60
1,FORT MCMURRAY AP ANN HTG 99.6% CONDNS DB,  56.65,-111.22,  -7.00, 369.10
2,1, 1,21, 0, 1, 0.00,10.00,WinterDesignDay
8,-36.2
10,22478980.300617726
321,335749196.57471176
2,1, 1,21, 0, 1,10.00,20.00,WinterDesignDay
8,-36.2
10,22478980.300617726
321,341584188.6074859
2,1, 1,21, 0, 1,20.00,30.00,WinterDesignDay
8,-36.2
10,22478980.300617726
321,351795572.28452679
2,1, 1,21, 0, 1,30.00,40.00,WinterDesignDay
8,-36.2
10,22478980.300617726
321,337551678.2093674
2,1, 1,21, 0, 1,40.00,50.00,WinterDesignDay
8,-36.2
10,22478980.300617726
321,363286409.6782486
2,1, 1,21, 0, 1,50.00,60.00,WinterDesignDay
8,-36.2
10,22478980.300617726
321,341507878.04051998
2,1, 1,21, 0, 1, 0.00,60.00,WinterDesignDay
555,17.999983774730038
595,21.999188555377658
635,23.699037874848189
675,18.258344206886645
715,17.99998843924242
2,1, 1,21, 0, 2, 0.00,10.00,WinterDesignDay
8,-36.2
10,18528795.239466929
321,355797209.6982646
2,1, 1,21, 0, 2,10.00,20.00,WinterDesignDay
8,-36.2
10,18528795.239466929
321,338001196.50662288
2,1, 1,21, 0, 2,20.00,30.00,WinterDesignDay
8,-36.2
10,18528795.239466929
321,338244392.05642279
2,1, 1,21, 0, 2,30.00,40.00,WinterDesignDay
8,-36.2
10,18528795.239466929
321,338470040.9583773
2,1, 1,21, 0, 2,40.00,50.00,WinterDesignDay
8,-36.2
10,18528795.239466929
321,356652536.3446455
2,1, 1,21, 0, 2,50.00,60.00,WinterDesignDay
8,-36.2
10,18528795.239466929
321,338871954.9881847
2,1, 1,21, 0, 2, 0.00,60.00,WinterDesignDay
555,17.99998764544269
595,20.922744932541169
635,23.01339113256047
675,18.00000079367449
715,17.99999304845034
2,1, 1,21, 0, 3, 0.00,10.00,WinterDesignDay
8,-36.2
10,18528795.239466929
321,339043344.03999558
2,1, 1,21, 0, 3,10.00,20.00,WinterDesignDay
8,-36.2
10,18528795.239466929
321,339199531.0171019
2,1, 1,21, 0, 3,20.00,30.00,WinterDesignDay
8,-36.2
10,18528795.239466929
321,357181859.72194239
2,1, 1,21, 0, 3,30.00,40.00,WinterDesignDay
8,-36.2
10,18528795.239466929
321,339463566.06444099
2,1, 1,21, 0, 3,40.00,50.00,WinterDesignDay
8,-36.2
10,18528795.239466929
321,339573752.19230076
2,1, 1,21, 0, 3,50.00,60.00,WinterDesignDay
8,-36.2
10,18528795.239466929
321,347861246.4309926
2,1, 1,21, 0, 3, 0.00,60.00,WinterDesignDay
555,17.99998980196938
595,19.72216752534968
635,22.41068108713016
675,17.99998242253181
715,17.999991889552324
2,1, 1,21, 0, 4, 0.00,10.00,WinterDesignDay
8,-36.2
10,18528795.239466929
321,350826454.3416538
2,1, 1,21, 0, 4,10.00,20.00,WinterDesignDay
8,-36.2
10,18528795.239466929
321,339836321.8872292
2,1, 1,21, 0, 4,20.00,30.00,WinterDesignDay
8,-36.2
10,18528795.239466929
321,339904434.4156743
2,1, 1,21, 0, 4,30.00,40.00,WinterDesignDay
8,-36.2
10,18528795.239466929
321,358025326.77692249
2,1, 1,21, 0, 4,40.00,50.00,WinterDesignDay
8,-36.2
10,18528795.239466929
321,340020004.64074948
2,1, 1,21, 0, 4,50.00,60.00,WinterDesignDay
8,-36.2
10,18528795.239466929
321,340064314.514193
2,1, 1,21, 0, 4, 0.00,60.00,WinterDesignDay
555,17.999992399400843
595,19.331306075677138
635,22.147929755886154
675,17.99998436866057
715,17.999992174869989
2,1, 1,21, 0, 5, 0.00,10.00,WinterDesignDay
8,-36.2
10,18528795.239466929
321,340106678.1983068
2,1, 1,21, 0, 5,10.00,20.00,WinterDesignDay
8,-36.2
10,18528795.239466929
321,358106634.418182
2,1, 1,21, 0, 5,20.00,30.00,WinterDesignDay
8,-36.2
10,18528795.239466929
321,340175156.1786711
2,1, 1,21, 0, 5,30.00,40.00,WinterDesignDay
8,-36.2
10,18528795.239466929
321,340202964.25604739
2,1, 1,21, 0, 5,40.00,50.00,WinterDesignDay
8,-36.2
10,18528795.239466929
321,340229547.3539119
2,1, 1,21, 0, 5,50.00,60.00,WinterDesignDay
8,-36.2
10,18528795.239466929
321,358094454.0617893
2,1, 1,21, 0, 5, 0.00,60.00,WinterDesignDay
555,17.999993561843757
595,19.177855563842369
635,22.023332476916008
675,17.99998843506312
715,17.99999227056121
2,1, 1,21, 0, 6, 0.00,10.00,WinterDesignDay
8,-36.2
10,18528795.239466929
321,340270278.25418499
2,1, 1,21, 0, 6,10.00,20.00,WinterDesignDay
8,-36.2
10,18528795.239466929
321,340287813.7786391
2,1, 1,21, 0, 6,20.00,30.00,WinterDesignDay
8,-36.2
10,18528795.239466929
321,348380436.33937528
2,1, 1,21, 0, 6,30.00,40.00,WinterDesignDay
8,-36.2
10,18528795.239466929
321,351485445.04229888
2,1, 1,21, 0, 6,40.00,50.00,WinterDesignDay
8,-36.2
10,18528795.239466929
321,340327634.1341138
2,1, 1,21, 0, 6,50.00,60.00,WinterDesignDay
8,-36.2
10,18528795.239466929
321,340339424.6921592
2,1, 1,21, 0, 6, 0.00,60.00,WinterDesignDay
555,17.999994097477598
595,19.112007235591965
635,21.963316804571975
675,17.99999126532673
715,17.999992310180038
2,1, 1,21, 0, 7, 0.00,10.00,WinterDesignDay
8,-36.2
10,20599547.52223544
321,393112954.1241609
2,1, 1,21, 0, 7,10.00,20.00,WinterDesignDay
8,-36.2
10,20599547.52223544
321,355693165.49295917
2,1, 1,21, 0, 7,20.00,30.00,WinterDesignDay
8,-36.2
10,20599547.52223544
321,354017809.7250813
2,1, 1,21, 0, 7,30.00,40.00,WinterDesignDay
8,-36.2
10,20599547.52223544
321,372062858.2131345
2,1, 1,21, 0, 7,40.00,50.00,WinterDesignDay
8,-36.2
10,20599547.52223544
321,371563371.3123463
2,1, 1,21, 0, 7,50.00,60.00,WinterDesignDay
8,-36.2
10,20599547.52223544
321,366515902.1218463
2,1, 1,21, 0, 7, 0.00,60.00,WinterDesignDay
555,17.999995037717836
595,19.30955200815751
635,22.192697504548066
675,17.9999936187977
715,19.95989737611507
2,1, 1,21, 0, 8, 0.00,10.00,WinterDesignDay
8,-36.2
10,34734682.66982916
321,485802005.38242956
2,1, 1,21, 0, 8,10.00,20.00,WinterDesignDay
8,-36.2
10,34734682.66982916
321,441103946.8239249
2,1, 1,21, 0, 8,20.00,30.00,WinterDesignDay
8,-36.2
10,34734682.66982916
321,428670709.78424218
2,1, 1,21, 0, 8,30.00,40.00,WinterDesignDay
8,-36.2
10,34734682.66982916
321,421145889.7568698
2,1, 1,21, 0, 8,40.00,50.00,WinterDesignDay
8,-36.2
10,34856117.93072949
321,421466073.43732258
2,1, 1,21, 0, 8,50.00,60.00,WinterDesignDay
8,-36.2
10,34888022.80833399
321,421543749.34028288
2,1, 1,21, 0, 8, 0.00,60.00,WinterDesignDay
555,19.95451926627894
595,20.52268653206198
635,23.37101645356987
675,19.935095592046407
715,21.9515509105956
2,1, 1,21, 0, 9, 0.00,10.00,WinterDesignDay
8,-36.2
10,62968280.1540038
321,464758545.5262022
2,1, 1,21, 0, 9,10.00,20.00,WinterDesignDay
8,-36.2
10,63010787.44016949
321,426060096.46560278
2,1, 1,21, 0, 9,20.00,30.00,WinterDesignDay
8,-36.2
10,63030896.437213588
321,380148851.3723467
2,1, 1,21, 0, 9,30.00,40.00,WinterDesignDay
8,-36.2
10,63004445.22055794
321,408626198.2909222
2,1, 1,21, 0, 9,40.00,50.00,WinterDesignDay
8,-36.2
10,63032474.91186631
321,401348315.98089578
2,1, 1,21, 0, 9,50.00,60.00,WinterDesignDay
8,-36.2
10,63033162.69582077
321,383767227.51511916
2,1, 1,21, 0, 9, 0.00,60.00,WinterDesignDay
555,21.961513989561074
595,21.991095338111035
635,23.906480518911683
675,21.929184010434473
715,21.99974676083551
2,1, 1,21, 0,10, 0.00,10.00,WinterDesignDay
8,-36.2
10,80271613.26312964
321,366583631.0363425
2,1, 1,21, 0,10,10.00,20.00,WinterDesignDay
8,-36.2
10,80271613.26312964
321,365740685.84019687
2,1, 1,21, 0,10,20.00,30.00,WinterDesignDay
8,-36.2
10,80271613.26312964
321,354232345.61117246
2,1, 1,21, 0,10,30.00,40.00,WinterDesignDay
8,-36.2
10,80271613.26312964
321,352730209.91306319
2,1, 1,21, 0,10,40.00,50.00,WinterDesignDay
8,-36.2
10,80271613.26312964
321,352376327.1017958
2,1, 1,21, 0,10,50.00,60.00,WinterDesignDay
8,-36.2
10,80271613.26312964
321,352053313.5536158
2,1, 1,21, 0,10, 0.00,60.00,WinterDesignDay
555,22.000000157067566
595,21.99880490253915
635,23.662395946853449
675,22.030587468225848
715,22.02969093180565
2,1, 1,21, 0,11, 0.00,10.00,WinterDesignDay
8,-36.2
10,80271613.26312964
321,351701189.5677815
2,1, 1,21, 0,11,10.00,20.00,WinterDesignDay
8,-36.2
10,80271613.26312964
321,351985517.9544902
2,1, 1,21, 0,11,20.00,30.00,WinterDesignDay
8,-36.2
10,80271613.26312964
321,351878571.64397457
2,1, 1,21, 0,11,30.00,40.00,WinterDesignDay
8,-36.2