Program Version,EnergyPlus, Version 8.9.0-eba93e8e1b, YMD=2019.03.20 20:07
1,5,Environment Title[],Latitude[deg],Longitude[deg],Time Zone[],Elevation[m]
2,8,Day of Simulation[],Month[],Day of Month[],DST Indicator[1=yes 0=no],Hour[],StartMinute[],EndMinute[],DayType
3,5,Cumulative Day of Simulation[],Month[],Day of Month[],DST Indicator[1=yes 0=no],DayType  ! When Daily Report Variables Requested
4,2,Cumulative Days of Simulation[],Month[]  ! When Monthly Report Variables Requested
5,1,Cumulative Days of Simulation[] ! When Run Period Report Variables Requested
6,1,Calendar Year of Simulation[] ! When Annual Report Variables Requested
7,9,Environment,Site Outdoor Air Drybulb Temperature [C] !Monthly [Value,Min,Day,Hour,Minute,Max,Day,Hour,Minute]
8,1,Environment,Site Outdoor Air Wetbulb Temperature [C] !TimeStep
555,1,SP-ELECTRICAL/MECHANICAL ROOM-SCH-C-SPACE FUNCTION SYS-3 FLR-1 SCH-C HPLCMT-CORE ZN,Zone Air Temperature [C] !Hourly
556,7,SP-ELECTRICAL/MECHANICAL ROOM-SCH-C-SPACE FUNCTION SYS-3 FLR-1 SCH-C HPLCMT-CORE ZN,Zone Air Relative Humidity [%] !Daily [Value,Min,Hour,Minute,Max,Hour,Minute]
595,1,SP-ELECTRICAL/MECHANICAL ROOM-SCH-D-SPACE FUNCTION SYS-3 FLR-1 SCH-D HPLCMT-SOUTH ZN,Zone Air Temperature [C] !Hourly
596,7,SP-ELECTRICAL/MECHANICAL ROOM-SCH-D-SPACE FUNCTION SYS-3 FLR-1 SCH-D HPLCMT-SOUTH ZN,Zone Air Relative Humidity [%] !Daily [Value,Min,Hour,Minute,Max,Hour,Minute]
635,1,SP-FOOD PREPARATION AREA-SPACE FUNCTION SYS-3 FLR-1 SCH-B HPLCMT-EAST ZN,Zone Air Temperature [C] !Hourly
636,7,SP-FOOD PREPARATION AREA-SPACE FUNCTION SYS-3 FLR-1 SCH-B HPLCMT-EAST ZN,Zone Air Relative Humidity [%] !Daily [Value,Min,Hour,Minute,Max,Hour,Minute]
675,1,SP-GUEST ROOM-SPACE FUNCTION SYS-1 FLR-1 SCH-F HPLCMT-NORTH ZN,Zone Air Temperature [C] !Hourly
676,7,SP-GUEST ROOM-SPACE FUNCTION SYS-1 FLR-1 SCH-F HPLCMT-NORTH ZN,Zone Air Relative Humidity [%] !Daily [Value,Min,Hour,Minute,Max,Hour,Minute]
715,1,SP-LABORATORY - CLASSROOMS-SPACE FUNCTION SYS-3 FLR-1 SCH-D HPLCMT-WEST ZN,Zone Air Temperature [C] !Hourly
716,7,SP-LABORATORY - CLASSROOMS-SPACE FUNCTION SYS-3 FLR-1 SCH-D HPLCMT-WEST ZN,Zone Air Relative Humidity [%] !Daily [Value,Min,Hour,Minute,Max,Hour,Minute]
10,1,Electricity:Facility [J] !TimeStep
321,1,Gas:Facility [J] !TimeStep
End of Data Dictionary
1,FORT MCMURRAY AP ANN CLG .4% CONDNS DB=>MWB,  56.65,-111.22,  -7.00, 369.10
2,1, 7,21, 0, 1, 0.00,10.00,SummerDesignDay
8,14.218136923962174
10,42764415.88580134
321,16471114.683534626
2,1, 7,21, 0, 1,10.00,20.00,SummerDesignDay
8,14.171982153293495
10,42616162.063862469
321,19668485.093122554
2,1, 7,21, 0, 1,20.00,30.00,SummerDesignDay
8,14.125744780286427
10,42420724.44715754
321,23085314.47229254
2,1, 7,21, 0, 1,30.00,40.00,SummerDesignDay
8,14.079436086331978
10,42365650.4099871
321,23158015.777373583
2,1, 7,21, 0, 1,40.00,50.00,SummerDesignDay
8,14.033050387896898
10,42252727.46769642
321,16586334.963091474
2,1, 7,21, 0, 1,50.00,60.00,SummerDesignDay
8,13.986581233564835
10,42142577.563313599
321,19507367.82966462
2,1, 7,21, 0, 1, 0.00,60.00,SummerDesignDay
555,22.71457297330511
595,22.767415047491629
635,23.998361295657998
675,23.822011901418525
715,22.357775554039454
2,1, 7,21, 0, 2, 0.00,10.00,SummerDesignDay
8,13.95555882260429
10,27339132.761233733
321,21156217.028908507
2,1, 7,21, 0, 2,10.00,20.00,SummerDesignDay
8,13.924507755336454
10,27205626.014236906
321,11506315.855566584
2,1, 7,21, 0, 2,20.00,30.00,SummerDesignDay
8,13.893416042989206
10,27205626.014236906
321,11615476.982803196
2,1, 7,21, 0, 2,30.00,40.00,SummerDesignDay
8,13.862289589689029
10,27205626.014236906
321,21131125.541632669
2,1, 7,21, 0, 2,40.00,50.00,SummerDesignDay
8,13.831134407608739
10,27205626.014236906
321,11734825.651526232
2,1, 7,21, 0, 2,50.00,60.00,SummerDesignDay
8,13.799938415548118
10,27205626.014236906
321,15638205.176641399
2,1, 7,21, 0, 2, 0.00,60.00,SummerDesignDay
555,22.38931222622041
595,22.344792448532816
635,23.99472847854453
675,23.7629710557521
715,22.00371428787176
2,1, 7,21, 0, 3, 0.00,10.00,SummerDesignDay
8,13.776521671948676
10,16806848.246421134
321,12011181.080463032
2,1, 7,21, 0, 3,10.00,20.00,SummerDesignDay
8,13.753085235778466
10,16806848.246421134
321,10044038.781128584
2,1, 7,21, 0, 3,20.00,30.00,SummerDesignDay
8,13.729636002354969
10,17375417.433921134
321,10342899.31237183
2,1, 7,21, 0, 3,30.00,40.00,SummerDesignDay
8,13.706147375533054
10,17375417.433921134
321,10174239.278492624
2,1, 7,21, 0, 3,40.00,50.00,SummerDesignDay
8,13.682651961920304
10,17943986.621421134
321,1004459.174314979
2,1, 7,21, 0, 3,50.00,60.00,SummerDesignDay
8,13.659136670643687
10,17943986.621421134
321,10959432.039859232
2,1, 7,21, 0, 3, 0.00,60.00,SummerDesignDay
555,22.110630898810617
595,22.035248778775189
635,22.446525684668204
675,23.576038686426288
715,20.896345104170839
2,1, 7,21, 0, 4, 0.00,10.00,SummerDesignDay
8,13.63560137410855
10,17345269.113577196
321,10713300.55542148
2,1, 7,21, 0, 4,10.00,20.00,SummerDesignDay
8,13.612040802606578
10,17345269.113577196
321,1170251.9284959066
2,1, 7,21, 0, 4,20.00,30.00,SummerDesignDay
8,13.58846620506876
10,17345269.113577196
321,10798200.436942136
2,1, 7,21, 0, 4,30.00,40.00,SummerDesignDay
8,13.56487178447336
10,17345269.113577196
321,1280779.8107021498
2,1, 7,21, 0, 4,40.00,50.00,SummerDesignDay
8,13.541257354069103
10,17345269.113577196
321,10914195.575287536
2,1, 7,21, 0, 4,50.00,60.00,SummerDesignDay
8,13.517617463812285
10,17345269.113577196
321,1391307.225814344
2,1, 7,21, 0, 4, 0.00,60.00,SummerDesignDay
555,21.781398816086676
595,21.697302713508248
635,21.320658742206889
675,23.205643481903598
715,20.228712475578246
2,1, 7,21, 0, 5, 0.00,10.00,SummerDesignDay
8,13.50185415824011
10,17345269.113577196
321,11012373.6677783
2,1, 7,21, 0, 5,10.00,20.00,SummerDesignDay
8,13.486076034032447
10,17345269.113577196
321,1466844.111248643
2,1, 7,21, 0, 5,20.00,30.00,SummerDesignDay
8,13.470289340350983
10,17345269.113577196
321,11089438.175360514
2,1, 7,21, 0, 5,30.00,40.00,SummerDesignDay
8,13.454493322631063
10,17345269.113577196
321,1540528.5668706436
2,1, 7,21, 0, 5,40.00,50.00,SummerDesignDay
8,13.438688835118548
10,17345269.113577196
321,9679702.192664056
2,1, 7,21, 0, 5,50.00,60.00,SummerDesignDay
8,13.422888173889437
10,17345269.113577196
321,3402100.12765976
2,1, 7,21, 0, 5, 0.00,60.00,SummerDesignDay
555,21.492413327710648
595,21.414987239085567
635,21.013072594227834
675,22.89115398328244
715,20.09952753547465
2,1, 7,21, 0, 6, 0.00,10.00,SummerDesignDay
8,13.438688835118548
10,17345269.113577196
321,11466450.774181426
2,1, 7,21, 0, 6,10.00,20.00,SummerDesignDay
8,13.454493322631063
10,17345269.113577196
321,8890287.133017507
2,1, 7,21, 0, 6,20.00,30.00,SummerDesignDay
8,13.470289340350983
10,17345269.113577196
321,4598454.833841518
2,1, 7,21, 0, 6,30.00,40.00,SummerDesignDay
8,13.486076034032447
10,17345269.113577196
321,11376767.316432285
2,1, 7,21, 0, 6,40.00,50.00,SummerDesignDay
8,13.50185415824011
10,17345269.113577196
321,11362730.814838622
2,1, 7,21, 0, 6,50.00,60.00,SummerDesignDay
8,13.517617463812285
10,17345269.113577196
321,11348742.860373993
2,1, 7,21, 0, 6, 0.00,60.00,SummerDesignDay
555,21.299554923160714
595,21.231962903054855
635,20.891144337479724
675,22.79758709220477
715,20.04675909642125
2,1, 7,21, 0, 7, 0.00,10.00,SummerDesignDay
8,13.572736920571789
10,17943986.621421134
321,11969188.32742075
2,1, 7,21, 0, 7,10.00,20.00,SummerDesignDay
8,13.627748229152554
10,17943986.621421134
321,11938715.923784275
2,1, 7,21, 0, 7,20.00,30.00,SummerDesignDay
8,13.682651961920304
10,17943986.621421134
321,11831431.577920165
2,1, 7,21, 0, 7,30.00,40.00,SummerDesignDay
8,13.737448093244995
10,16806848.246421134
321,19078741.484336024
2,1, 7,21, 0, 7,40.00,50.00,SummerDesignDay
8,13.792137011831216
10,16806848.246421134
321,13496425.16134458
2,1, 7,21, 0, 7,50.00,60.00,SummerDesignDay
8,13.846719282840333
10,16995169.923049299
321,11419525.568722388
2,1, 7,21, 0, 7, 0.00,60.00,SummerDesignDay
555,21.245410344197287
595,21.183408990196705
635,20.83571627878682
675,22.985799776469646
715,20.023878767061004
2,1, 7,21, 0, 8, 0.00,10.00,SummerDesignDay
8,13.978831900527043
10,18687803.074912836
321,21673367.119273634
2,1, 7,21, 0, 8,10.00,20.00,SummerDesignDay
8,14.110321014287419
10,18740727.88127141
321,12356284.241650768
2,1, 7,21, 0, 8,20.00,30.00,SummerDesignDay
8,14.241191509616986
10,18436060.367898428
321,21976394.165748985
2,1, 7,21, 0, 8,30.00,40.00,SummerDesignDay
8,14.371447531304272
10,18515147.258633418
321,15498454.345137574
2,1, 7,21, 0, 8,40.00,50.00,SummerDesignDay
8,14.501093766564925
10,18585396.968399723
321,18479571.729290356
2,1, 7,21, 0, 8,50.00,60.00,SummerDesignDay
8,14.630134792273804
10,18652297.539355697
321,22000100.703411104
2,1, 7,21, 0, 8, 0.00,60.00,SummerDesignDay
555,21.38462143203262
595,21.318964239848655
635,21.017544018496606
675,23.382786115663597
715,20.37863228926388
2,1, 7,21, 0, 9, 0.00,10.00,SummerDesignDay
8,14.773641492809972
10,29720960.587865008
321,65796218.395735938
2,1, 7,21, 0, 9,10.00,20.00,SummerDesignDay
8,14.91640948124148
10,29657269.088918579
321,30684499.615211779
2,1, 7,21, 0, 9,20.00,30.00,SummerDesignDay
8,15.05843890714102
10,30468523.802678314
321,30467199.492868499
2,1, 7,21, 0, 9,30.00,40.00,SummerDesignDay
8,15.199735893563798
10,30732696.274718096
321,30484713.65360052
2,1, 7,21, 0, 9,40.00,50.00,SummerDesignDay
8,15.340306256439395
10,31200128.37335421
321,30492483.912832224
2,1, 7,21, 0, 9,50.00,60.00,SummerDesignDay
8,15.48015101768072
10,29961769.544978724
321,30499548.768793774
2,1, 7,21, 0, 9, 0.00,60.00,SummerDesignDay
555,22.493167842545544
595,22.345142770429307
635,22.084710298466136
675,23.754029291516443
715,22.972960686961839
2,1, 7,21, 0,10, 0.00,10.00,SummerDesignDay
8,15.60467292907716
10,72158793.38701672
321,31181716.087824428
2,1, 7,21, 0,10,10.00,20.00,SummerDesignDay
8,15.72862731650033
10,74442557.51197723
321,31498213.507553705
2,1, 7,21, 0,10,20.00,30.00,SummerDesignDay
8,15.852017409284228
10,76438475.83215559
321,32614966.67195743
2,1, 7,21, 0,10,30.00,40.00,SummerDesignDay
8,15.974848118364367
10,78310179.02021696
321,33298010.460932509
2,1, 7,21, 0,10,40.00,50.00,SummerDesignDay
8,16.097123145563505
10,80493641.57128483
321,33297387.53616845
2,1, 7,21, 0,10,50.00,60.00,SummerDesignDay
8,16.218846351168599
10,83538043.71022472
321,33295389.739133274
2,1, 7,21, 0,10, 0.00,60.00,SummerDesignDay
555,23.58163308118536
595,23.443551219028888
635,23.82304180045249
675,23.89543458388856
715,23.99472243868232
2,1, 7,21, 0,11, 0.00,10.00,SummerDesignDay
8,16.325793027093189
10,88528733.89085102
321,33610238.52203688
2,1, 7,21, 0,11,10.00,20.00,SummerDesignDay
8,16.432322158488288
10,90912854.60167927
321,33644261.86423263
2,1, 7,21, 0,11,20.00,30.00,SummerDesignDay
8,16.538424180249178
10,91548825.48408133
321,33643618.25317903
2,1, 7,21, 0,11,30.00,40.00,SummerDesignDay
8,16.644108396469087
10,92190956.26265013
321,32989719.74487474
2,1, 7,21, 0,11,40.00,50.00,SummerDesignDay
8,16.749376736593655
10,92800578.90679229
321,31570619.211702236
2,1, 7,21, 0,11,50.00,60.00,SummerDesignDay
8,16.854232613237156
10,93349270.26337154
321,31577963.000064944
2,1, 7,21, 0,11, 0.00,60.00,SummerDesignDay
555,23.999875518074444
595,23.999805919619875
635,23.999156753367715
675,23.8204263133094
715,23.998027077017779
2,1, 7,21, 0,12, 0.00,10.00,SummerDesignDay
8,16.92390823520069
10,99553231.99503303
321,29394749.726706856
2,1, 7,21, 0,12,10.00,20.00,SummerDesignDay
8,16.99340178950456
10,99867846.30142479
321,29177465.215761689
2,1, 7,21, 0,12,20.00,30.00,SummerDesignDay
8,17.06272006743463
10,100141996.37883929
321,29182097.121791617
2,1, 7,21, 0,12,30.00,40.00,SummerDesignDay
8,17.131853229172639
10,100399264.25407794
321,29186589.77547254
2,1, 7,21, 0,12,40.00,50.00,SummerDesignDay
8,17.200807172194087
10,100642168.47182434
321,29191017.6202886
2,1, 7,21, 0,12,50.00,60.00,SummerDesignDay
8,17.269582116758607
10,100871850.38370538
321,29195385.126818535
2,1, 7,21, 0,12, 0.00,60.00,SummerDesignDay
555,23.999952639932699
595,23.999870436923318
635,23.998803086422343
675,23.794337363391464
715,23.997536716557354
2,1, 7,21, 0,13, 0.00,10.00,SummerDesignDay
8,17.32447360221357
10,100521591.82345
321,28054688.153054399
2,1, 7,21, 0,13,10.00,20.00,SummerDesignDay
8,17.379251291230806
10,100695759.86749934
321,28755698.382697777
2,1, 7,21, 0,13,20.00,30.00,SummerDesignDay
8,17.433921312061729
10,100883451.02289987
321,28874836.793836189
2,1, 7,21, 0,13,30.00,40.00,SummerDesignDay
8,17.488473222557489
10,101068442.30153209
321,28875597.267073335
2,1, 7,21, 0,13,40.00,50.00,SummerDesignDay
8,17.542913447755134
10,101249842.21308202
321,28876331.636797478
2,1, 7,21, 0,13,50.00,60.00,SummerDesignDay
8,17.59724609886134
10,101426651.4573154
321,28877052.62968025
2,1, 7,21, 0,13, 0.00,60.00,SummerDesignDay
555,24.000002864620048
595,23.999951295568907
635,24.11520111548577
675,23.648253968437048
715,23.997466157968704
2,1, 7,21, 0,14, 0.00,10.00,SummerDesignDay
8,17.6311450462694
10,101542709.89956238
321,32405069.26361675
2,1, 7,21, 0,14,10.00,20.00,SummerDesignDay
8,17.665000449016245
10,101654483.60324274
321,32755598.999753935
2,1, 7,21, 0,14,20.00,30.00,SummerDesignDay
8,17.698812743128934
10,101764241.15922128
321,32754754.42177128
2,1, 7,21, 0,14,30.00,40.00,SummerDesignDay
8,17.732582050940107
10,101877526.06660095
321,32753851.304457666
2,1, 7,21, 0,14,40.00,50.00,SummerDesignDay
8,17.766307345121004
10,101989087.3132732
321,32175606.078283188
2,1, 7,21, 0,14,50.00,60.00,SummerDesignDay
8,17.79999023167558
10,102100259.45510739
321,30717808.289377344
2,1, 7,21, 0,14, 0.00,60.00,SummerDesignDay
555,23.999985836633586
595,23.999985285545205
635,24.30412372910888
675,23.5522746291205
715,23.99745130573453
2,1, 7,21, 0,15, 0.00,10.00,SummerDesignDay
8,17.79999023167558
10,102112131.51047725
321,28788516.358661627
2,1, 7,21, 0,15,10.00,20.00,SummerDesignDay
8,17.79999023167558
10,102119027.45077516
321,28594799.649458078
2,1, 7,21, 0,15,20.00,30.00,SummerDesignDay
8,17.79999023167558
10,102122679.5355305
321,28598372.082028845
2,1, 7,21, 0,15,30.00,40.00,SummerDesignDay
8,17.79999023167558
10,102124928.37694833
321,28601759.46166571
2,1, 7,21, 0,15,40.00,50.00,SummerDesignDay
8,17.79999023167558
10,102126458.28455302
321,28605099.857760118
2,1, 7,21, 0,15,50.00,60.00,SummerDesignDay
8,17.79999023167558
10,102127521.31398475
321,28608399.925422945
2,1, 7,21, 0,15, 0.00,60.00,SummerDesignDay
555,23.999966012074379
595,23.9999701671556
635,24.269345687044426
675,23.533662872467258
715,23.997397105424729
2,1, 7,21, 0,16, 0.00,10.00,SummerDesignDay
8,17.759562446305357
10,102010354.70102372
321,25886897.65036056
2,1, 7,21, 0,16,10.00,20.00,SummerDesignDay
8,17.71907809634183
10,101888028.46269548
321,25618915.248246768
2,1, 7,21, 0,16,20.00,30.00,SummerDesignDay
8,17.67853788661001
10,101581625.13174097
321,25619277.108805948
2,1, 7,21, 0,16,30.00,40.00,SummerDesignDay
8,17.63791796367351
10,101450925.16113228
321,25619865.894386807
2,1, 7,21, 0,16,40.00,50.00,SummerDesignDay
8,17.59724609886134
10,101325845.20580364
321,25620446.88032549
2,1, 7,21, 0,16,50.00,60.00,SummerDesignDay
8,17.55650676726033
10,101191546.51553491
321,25621009.736986597
2,1, 7,21, 0,16, 0.00,60.00,SummerDesignDay
555,23.999951516212439
595,23.999946176033104
635,24.036454500819294
675,23.42074981375271
715,23.99731161241183
2,1, 7,21, 0,17, 0.00,10.00,SummerDesignDay
8,17.50209486331892
10,91696755.6543356
321,22002858.15413869
2,1, 7,21, 0,17,10.00,20.00,SummerDesignDay
8,17.447570789624618
10,91212901.13807939
321,17050224.500133534
2,1, 7,21, 0,17,20.00,30.00,SummerDesignDay
8,17.392929544208135
10,90993830.46598044
321,21186419.449624137
2,1, 7,21, 0,17,30.00,40.00,SummerDesignDay
8,17.33818013976614
10,90760895.42819567
321,23598808.911425048
2,1, 7,21, 0,17,40.00,50.00,SummerDesignDay
8,17.283317298559309
10,90539157.09012248
321,23618061.924374064
2,1, 7,21, 0,17,50.00,60.00,SummerDesignDay
8,17.22833552437677
10,90324861.11728132
321,22333075.521372729
2,1, 7,21, 0,17, 0.00,60.00,SummerDesignDay
555,23.999937397912054
595,23.999923006530197
635,23.998990890210285
675,23.36242439645064
715,23.998118910982354
2,1, 7,21, 0,18, 0.00,10.00,SummerDesignDay
8,17.159453019160176
10,76969523.93798355
321,12759624.576507537
2,1, 7,21, 0,18,10.00,20.00,SummerDesignDay
8,17.090391773337136
10,76293428.87143971
321,20360322.612045494
2,1, 7,21, 0,18,20.00,30.00,SummerDesignDay
8,17.021151077964786
10,76011041.85292232
321,12311813.844714497
2,1, 7,21, 0,18,30.00,40.00,SummerDesignDay
8,16.951729380464653
10,75712308.62558271
321,19029608.805237134
2,1, 7,21, 0,18,40.00,50.00,SummerDesignDay
8,16.882126503829249
10,75424351.22464788
321,13701403.396464499
2,1, 7,21, 0,18,50.00,60.00,SummerDesignDay
8,16.812341807494034
10,75149678.26460853
321,17690039.05305274
2,1, 7,21, 0,18, 0.00,60.00,SummerDesignDay
555,23.99987681166949
595,23.999942558228868
635,23.999044501143844
675,23.428207037032214
715,23.999300684826328
2,1, 7,21, 0,19, 0.00,10.00,SummerDesignDay
8,16.707321072823203
10,74749740.7144101
321,16060563.06386554
2,1, 7,21, 0,19,10.00,20.00,SummerDesignDay
8,16.601881826644556
10,74512872.263554
321,22720531.70690251
2,1, 7,21, 0,19,20.00,30.00,SummerDesignDay
8,16.496030555252849
10,74162786.64005104
321,22724476.851537978
2,1, 7,21, 0,19,30.00,40.00,SummerDesignDay
8,16.389760181474104
10,73815631.74610859
321,12428798.52442901
2,1, 7,21, 0,19,40.00,50.00,SummerDesignDay
8,16.283067654262039
10,72341186.75309724
321,22586417.51138625
2,1, 7,21, 0,19,50.00,60.00,SummerDesignDay
8,16.17595057957811
10,71953437.50316949
321,22739891.335081664
2,1, 7,21, 0,19, 0.00,60.00,SummerDesignDay
555,23.999814945746978
595,23.999945903129228
635,23.998778661080349
675,23.468456786952939
715,23.999553811966039
2,1, 7,21, 0,20, 0.00,10.00,SummerDesignDay
8,16.097123145563505
10,78377638.77459219
321,25590595.28143925
2,1, 7,21, 0,20,10.00,20.00,SummerDesignDay
8,16.018070242471564
10,78227098.74853467
321,25954067.542419197
2,1, 7,21, 0,20,20.00,30.00,SummerDesignDay
8,15.938779752340516
10,78305382.74581793
321,25594884.233968818
2,1, 7,21, 0,20,30.00,40.00,SummerDesignDay
8,15.85926152575189
10,78649887.8659373
321,24860095.215833587
2,1, 7,21, 0,20,40.00,50.00,SummerDesignDay
8,15.779503718563929
10,77847021.44688922
321,24853536.870872834
2,1, 7,21, 0,20,50.00,60.00,SummerDesignDay
8,15.699515709672767
10,77707963.37576859
321,24846596.64149918
2,1, 7,21, 0,20, 0.00,60.00,SummerDesignDay
555,23.999901682341755
595,23.99988933240193
635,23.998168962114108
675,23.76590527278366
715,23.999181952714478
2,1, 7,21, 0,21, 0.00,10.00,SummerDesignDay
8,15.63389147320404
10,78170035.40911108
321,33420121.482083356
2,1, 7,21, 0,21,10.00,20.00,SummerDesignDay
8,15.56810827419793
10,78236759.45034498
321,34155242.65276414
2,1, 7,21, 0,21,20.00,30.00,SummerDesignDay
8,15.502170882753524
10,77975090.61484832
321,32690335.70629638
2,1, 7,21, 0,21,30.00,40.00,SummerDesignDay
8,15.436068032613852
10,77652654.12763156
321,32111197.80953959
2,1, 7,21, 0,21,40.00,50.00,SummerDesignDay
8,15.369804371206009
10,77348847.47108656
321,32118917.576588479
2,1, 7,21, 0,21,50.00,60.00,SummerDesignDay
8,15.303384603594449
10,77026763.17283364
321,32126642.916486499
2,1, 7,21, 0,21, 0.00,60.00,SummerDesignDay
555,23.99994914323915
595,23.999894219506314
635,23.997715819399475
675,23.835625005326447
715,23.999224783877595
2,1, 7,21, 0,22, 0.00,10.00,SummerDesignDay
8,15.236797685071274
10,73216249.17629145
321,29861390.72774249
2,1, 7,21, 0,22,10.00,20.00,SummerDesignDay
8,15.170047891787942
10,72773028.25973025
321,29636513.393900489
2,1, 7,21, 0,22,20.00,30.00,SummerDesignDay
8,15.103134826860483
10,72438182.52423114
321,29641795.660077145
2,1, 7,21, 0,22,30.00,40.00,SummerDesignDay
8,15.036063385178485
10,72077275.83266807
321,29646977.313066715
2,1, 7,21, 0,22,40.00,50.00,SummerDesignDay
8,14.968821767219835
10,71717073.61995745
321,30897695.244905458
2,1, 7,21, 0,22,50.00,60.00,SummerDesignDay
8,14.90141525878635
10,71346658.83642712
321,31427437.313876757
2,1, 7,21, 0,22, 0.00,60.00,SummerDesignDay
555,23.82927914030036
595,23.99992007459318
635,23.997396522669594
675,23.836647321370987
715,23.99934859647067
2,1, 7,21, 0,23, 0.00,10.00,SummerDesignDay
8,14.848873673278373
10,55725064.858189728
321,28791807.641901446
2,1, 7,21, 0,23,10.00,20.00,SummerDesignDay
8,14.796237168136719
10,55600709.50247855
321,28473227.579207224
2,1, 7,21, 0,23,20.00,30.00,SummerDesignDay
8,14.743494321455645
10,55440465.93321691
321,28473831.049298698
2,1, 7,21, 0,23,30.00,40.00,SummerDesignDay
8,14.690649975253665
10,55288720.308922689
321,28474657.182741908
2,1, 7,21, 0,23,40.00,50.00,SummerDesignDay
8,14.637704281233117
10,55138998.99679417
321,28475482.44569083
2,1, 7,21, 0,23,50.00,60.00,SummerDesignDay
8,14.584656914839757
10,55001173.360101278
321,28476298.486456708
2,1, 7,21, 0,23, 0.00,60.00,SummerDesignDay
555,23.466513590110734
595,23.918124800875888
635,23.997639493986815
675,23.835832741545649
715,23.751837633686408
2,1, 7,21, 0,24, 0.00,10.00,SummerDesignDay
8,14.531507212058875
10,46013109.63576969
321,28477105.308246126
2,1, 7,21, 0,24,10.00,20.00,SummerDesignDay
8,14.47825496413355
10,45850819.675644788
321,28477902.922158414
2,1, 7,21, 0,24,20.00,30.00,SummerDesignDay
8,14.4249000133173
10,45674071.74006844
321,28478691.340442789
2,1, 7,21, 0,24,30.00,40.00,SummerDesignDay
8,14.371447531304272
10,45533104.75114896
321,28479470.576390555
2,1, 7,21, 0,24,40.00,50.00,SummerDesignDay
8,14.31788619902223
10,45374362.280032258
321,28480240.644324215
2,1, 7,21, 0,24,50.00,60.00,SummerDesignDay
8,14.264220970176066
10,45199592.10551043
321,28481001.55958627
2,1, 7,21, 0,24, 0.00,60.00,SummerDesignDay
555,23.08407938641059
595,23.40621698781511
635,23.99795591591638
675,23.833715528282018
715,22.84913863064642
3,1, 7,21, 0,SummerDesignDay
556,47.71855480121092,44.550170696101698,21,60,53.36375176695173, 7,30
596,47.421818262428327,43.59546586405326,22,60,53.45735462041682, 7,30
636,48.82985753276426,44.77943017322723, 1,60,55.108190769316639, 7,60
676,61.91918648097703,58.22666551638462,20,30,65.92726495374434,10,60
716,51.36047991457499,45.89099283428108,22,60,57.9311452083418, 7,30
4,1, 7
7,22.2505,16.5,21, 5,60,28.9,21,14,60
1,FORT MCMURRAY AP ANN HTG 99.6% CONDNS DB,  56.65,-111.22,  -7.00, 369.10
2,1, 1,21, 0, 1, 0.00,10.00,WinterDesignDay
8,-36.2
10,39340259.664896618
321,411897797.72753968
2,1, 1,21, 0, 1,10.00,20.00,WinterDesignDay
8,-36.2
10,39340259.664896618
321,410632929.0122274
2,1, 1,21, 0, 1,20.00,30.00,WinterDesignDay
8,-36.2
10,39340259.664896618
321,411152334.63979378
2,1, 1,21, 0, 1,30.00,40.00,WinterDesignDay
8,-36.2
10,39340259.664896618
321,412065247.5670929
2,1, 1,21, 0, 1,40.00,50.00,WinterDesignDay
8,-36.2
10,39340259.664896618
321,414782520.9875562
2,1, 1,21, 0, 1,50.00,60.00,WinterDesignDay
8,-36.2
10,39340259.664896618
321,414913903.6389715
2,1, 1,21, 0, 1, 0.00,60.00,WinterDesignDay
555,19.376244321477214
595,20.037981495147876
635,22.1265293156453
675,23.344533578895179
715,17.999998397525766
2,1, 1,21, 0, 2, 0.00,10.00,WinterDesignDay
8,-36.2
10,28342764.389236906
321,422883549.4365737
2,1, 1,21, 0, 2,10.00,20.00,WinterDesignDay
8,-36.2
10,28342764.389236906
321,413577918.1984259
2,1, 1,21, 0, 2,20.00,30.00,WinterDesignDay
8,-36.2
10,28342764.389236906
321,423665652.9194888
2,1, 1,21, 0, 2,30.00,40.00,WinterDesignDay
8,-36.2
10,28342764.389236906
321,414052848.7894247
2,1, 1,21, 0, 2,40.00,50.00,WinterDesignDay
8,-36.2
10,28342764.389236906
321,424109988.9685682
2,1, 1,21, 0, 2,50.00,60.00,WinterDesignDay
8,-36.2
10,28342764.389236906
321,414414590.21810677
2,1, 1,21, 0, 2, 0.00,60.00,WinterDesignDay
555,19.01231923381474
595,19.102683306988799
635,21.999546367208568
675,22.649976182343126
715,17.999982807698783
2,1, 1,21, 0, 3, 0.00,10.00,WinterDesignDay
8,-36.2
10,17943986.621421134
321,400188259.8499933
2,1, 1,21, 0, 3,10.00,20.00,WinterDesignDay
8,-36.2
10,17943986.621421134
321,400504177.2823338
2,1, 1,21, 0, 3,20.00,30.00,WinterDesignDay
8,-36.2
10,17943986.621421134
321,400385130.5293505
2,1, 1,21, 0, 3,30.00,40.00,WinterDesignDay
8,-36.2
10,17943986.621421134
321,400752794.02461418
2,1, 1,21, 0, 3,40.00,50.00,WinterDesignDay
8,-36.2
10,17943986.621421134
321,401483115.2149335
2,1, 1,21, 0, 3,50.00,60.00,WinterDesignDay
8,-36.2
10,17943986.621421134
321,408878071.5922159
2,1, 1,21, 0, 3, 0.00,60.00,WinterDesignDay
555,18.766079368476487
595,18.69822414876698
635,19.397175086310467
675,22.205658685421203
715,17.999993395531516
2,1, 1,21, 0, 4, 0.00,10.00,WinterDesignDay
8,-36.2
10,17345269.113577196
321,398543512.45915099
2,1, 1,21, 0, 4,10.00,20.00,WinterDesignDay
8,-36.2
10,17345269.113577196
321,407983959.09027668
2,1, 1,21, 0, 4,20.00,30.00,WinterDesignDay
8,-36.2
10,17345269.113577196
321,399206965.39960917
2,1, 1,21, 0, 4,30.00,40.00,WinterDesignDay
8,-36.2
10,17345269.113577196
321,409039726.0936333
2,1, 1,21, 0, 4,40.00,50.00,WinterDesignDay
8,-36.2
10,17345269.113577196
321,399603608.13767209
2,1, 1,21, 0, 4,50.00,60.00,WinterDesignDay
8,-36.2
10,17345269.113577196
321,409345237.6955999
2,1, 1,21, 0, 4, 0.00,60.00,WinterDesignDay
555,18.459103182375185
595,18.323461641103518
635,17.999934284575386
675,21.701627821336545
715,17.99998631166602
2,1, 1,21, 0, 5, 0.00,10.00,WinterDesignDay
8,-36.2
10,17345269.113577196
321,409548749.8197012
2,1, 1,21, 0, 5,10.00,20.00,WinterDesignDay
8,-36.2
10,17345269.113577196
321,399992115.2068751
2,1, 1,21, 0, 5,20.00,30.00,WinterDesignDay
8,-36.2
10,17345269.113577196
321,409732154.3692995
2,1, 1,21, 0, 5,30.00,40.00,WinterDesignDay
8,-36.2
10,17345269.113577196
321,400169481.5715104
2,1, 1,21, 0, 5,40.00,50.00,WinterDesignDay
8,-36.2
10,17345269.113577196
321,409868349.4383861
2,1, 1,21, 0, 5,50.00,60.00,WinterDesignDay
8,-36.2
10,17345269.113577196
321,400302164.7539553
2,1, 1,21, 0, 5, 0.00,60.00,WinterDesignDay
555,18.225911870234837
595,18.07773402066093
635,17.999965810227996
675,21.349636568494689
715,17.99998702252875
2,1, 1,21, 0, 6, 0.00,10.00,WinterDesignDay
8,-36.2
10,17345269.113577196
321,410715465.64838466
2,1, 1,21, 0, 6,10.00,20.00,WinterDesignDay
8,-36.2
10,17345269.113577196
321,410768729.17413088
2,1, 1,21, 0, 6,20.00,30.00,WinterDesignDay
8,-36.2
10,17345269.113577196
321,410832629.71775028
2,1, 1,21, 0, 6,30.00,40.00,WinterDesignDay
8,-36.2
10,17345269.113577196
321,410911328.3411399
2,1, 1,21, 0, 6,40.00,50.00,WinterDesignDay
8,-36.2
10,17345269.113577196
321,410963401.04914286
2,1, 1,21, 0, 6,50.00,60.00,WinterDesignDay
8,-36.2
10,17345269.113577196
321,411004895.72461947
2,1, 1,21, 0, 6, 0.00,60.00,WinterDesignDay
555,18.083045904426183
595,18.000021311955597
635,17.999978732011348
675,21.248628362719115
715,17.99998748192595
2,1, 1,21, 0, 7, 0.00,10.00,WinterDesignDay
8,-36.2
10,17943986.621421134
321,411970800.0872587
2,1, 1,21, 0, 7,10.00,20.00,WinterDesignDay
8,-36.2
10,17943986.621421134
321,412143706.8053797
2,1, 1,21, 0, 7,20.00,30.00,WinterDesignDay
8,-36.2
10,17943986.621421134
321,421674649.52149066
2,1, 1,21, 0, 7,30.00,40.00,WinterDesignDay
8,-36.2
10,17943986.621421134
321,412277973.3109825
2,1, 1,21, 0, 7,40.00,50.00,WinterDesignDay
8,-36.2
10,17943986.621421134
321,419997682.93398806
2,1, 1,21, 0, 7,50.00,60.00,WinterDesignDay
8,-36.2
10,17943986.621421134
321,414350447.9610736
2,1, 1,21, 0, 7, 0.00,60.00,WinterDesignDay
555,18.008266544468659
595,17.999997765193727
635,17.999982301101779
675,21.427563016220135
715,17.999987677008187
2,1, 1,21, 0, 8, 0.00,10.00,WinterDesignDay
8,-36.2
10,19141421.637109009
321,498807723.0043629
2,1, 1,21, 0, 8,10.00,20.00,WinterDesignDay
8,-36.2
10,19141421.637109009
321,469952538.81306549
2,1, 1,21, 0, 8,20.00,30.00,WinterDesignDay
8,-36.2
10,19141421.637109009
321,458340249.12665727
2,1, 1,21, 0, 8,30.00,40.00,WinterDesignDay
8,-36.2
10,19141421.637109009
321,443177965.8616835
2,1, 1,21, 0, 8,40.00,50.00,WinterDesignDay
8,-36.2
10,19141421.637109009
321,443424032.9050913
2,1, 1,21, 0, 8,50.00,60.00,WinterDesignDay
8,-36.2
10,19141421.637109009
321,439033973.80747309
2,1, 1,21, 0, 8, 0.00,60.00,WinterDesignDay
555,19.697469494037823
595,19.768012277716488
635,17.999988457298277
675,21.766443254661327
715,19.974396190990544
2,1, 1,21, 0, 9, 0.00,10.00,WinterDesignDay
8,-36.2
10,30666733.663104819
321,542209667.866482
2,1, 1,21, 0, 9,10.00,20.00,WinterDesignDay
8,-36.2
10,30666733.663104819
321,513139511.6277796
2,1, 1,21, 0, 9,20.00,30.00,WinterDesignDay
8,-36.2
10,30666733.663104819
321,495602328.73749807
2,1, 1,21, 0, 9,30.00,40.00,WinterDesignDay
8,-36.2
10,30666733.663104819
321,475642736.7729482
2,1, 1,21, 0, 9,40.00,50.00,WinterDesignDay
8,-36.2
10,30666733.663104819
321,468547298.13402369
2,1, 1,21, 0, 9,50.00,60.00,WinterDesignDay
8,-36.2
10,30666733.663104819
321,470486524.6736013
2,1, 1,21, 0, 9, 0.00,60.00,WinterDesignDay
555,21.66587077041865
595,21.707560261130327
635,19.9555367270349
675,22.21367515970566
715,21.960083235405575
2,1, 1,21, 0,10, 0.00,10.00,WinterDesignDay
8,-36.2
10,66753943.77123013
321,465923474.5491586
2,1, 1,21, 0,10,10.00,20.00,WinterDesignDay
8,-36.2
10,66753943.77123013
321,441736899.0611118
2,1, 1,21, 0,10,20.00,30.00,WinterDesignDay
8,-36.2
10,66753943.77123013
321,436077848.7024983
2,1, 1,21, 0,10,30.00,40.00,WinterDesignDay
8,-36.2
10,66753943.77123013
321,436421644.48440167
2,1, 1,21, 0,10,40.00,50.00,WinterDesignDay
8,-36.2
10,66753943.77123013
321,433838991.6198104
2,1, 1,21, 0,10,50.00,60.00,WinterDesignDay
8,-36.2
10,66753943.77123013
321,433070401.3160819
2,1, 1,21, 0,10, 0.00,60.00,WinterDesignDay
555,21.99999704196566
595,21.9999929097102
635,21.962053896737279
675,22.55516468176935
715,22.000000285236763
2,1, 1,21, 0,11, 0.00,10.00,WinterDesignDay
8,-36.2
10,71953332.655138
321,427800954.96867057
2,1, 1,21, 0,11,10.00,20.00,WinterDesignDay
8,-36.2
10,71953332.655138
321,425907944.8997775
2,1, 1,21, 0,11,20.00,30.00,WinterDesignDay
8,-36.2
10,71953332.655138
321,425467703.5451277
2,1, 1,21, 0,11,30.00,40.00,WinterDesignDay