Program Version,EnergyPlus, Version 8.9.0-eba93e8e1b, YMD=2019.03.20 18:00
1,5,Environment Title[],Latitude[deg],Longitude[deg],Time Zone[],Elevation[m]
2,8,Day of Simulation[],Month[],Day of Month[],DST Indicator[1=yes 0=no],Hour[],StartMinute[],EndMinute[],DayType
3,5,Cumulative Day of Simulation[],Month[],Day of Month[],DST Indicator[1=yes 0=no],DayType  ! When Daily Report Variables Requested
4,2,Cumulative Days of Simulation[],Month[]  ! When Monthly Report Variables Requested
5,1,Cumulative Days of Simulation[] ! When Run Period Report Variables Requested
6,1,Calendar Year of Simulation[] ! When Annual Report Variables Requested
7,9,Environment,Site Outdoor Air Drybulb Temperature [C] !Monthly [Value,Min,Day,Hour,Minute,Max,Day,Hour,Minute]
8,1,Environment,Site Outdoor Air Wetbulb Temperature [C] !TimeStep
1008,1,ALL_ST=LAB - RESEARCH_FL=STORY 4_SCH=A,Zone Air Temperature [C] !Hourly
1009,7,ALL_ST=LAB - RESEARCH_FL=STORY 4_SCH=A,Zone Air Relative Humidity [%] !Daily [Value,Min,Hour,Minute,Max,Hour,Minute]
1048,1,ALL_ST=LIBRARY - CATALOGING_FL=STORY 3_SCH=C,Zone Air Temperature [C] !Hourly
1049,7,ALL_ST=LIBRARY - CATALOGING_FL=STORY 3_SCH=C,Zone Air Relative Humidity [%] !Daily [Value,Min,Hour,Minute,Max,Hour,Minute]
1088,1,ALL_ST=LIBRARY - READING_FL=STORY 4_SCH=C,Zone Air Temperature [C] !Hourly
1089,7,ALL_ST=LIBRARY - READING_FL=STORY 4_SCH=C,Zone Air Relative Humidity [%] !Daily [Value,Min,Hour,Minute,Max,Hour,Minute]
1128,1,ALL_ST=LIBRARY - STACKS_FL=STORY 1_SCH=C,Zone Air Temperature [C] !Hourly
1129,7,ALL_ST=LIBRARY - STACKS_FL=STORY 1_SCH=C,Zone Air Relative Humidity [%] !Daily [Value,Min,Hour,Minute,Max,Hour,Minute]
1168,1,ALL_ST=LOBBY - ELEVATOR_FL=STORY 1_SCH=C,Zone Air Temperature [C] !Hourly
1169,7,ALL_ST=LOBBY - ELEVATOR_FL=STORY 1_SCH=C,Zone Air Relative Humidity [%] !Daily [Value,Min,Hour,Minute,Max,Hour,Minute]
1208,1,ALL_ST=LOBBY - MOTION PICTURE_FL=STORY 1_SCH=C,Zone Air Temperature [C] !Hourly
1209,7,ALL_ST=LOBBY - MOTION PICTURE_FL=STORY 1_SCH=C,Zone Air Relative Humidity [%] !Daily [Value,Min,Hour,Minute,Max,Hour,Minute]
1248,1,ALL_ST=LOBBY - OTHER_FL=STORY 4_SCH=C,Zone Air Temperature [C] !Hourly
1249,7,ALL_ST=LOBBY - OTHER_FL=STORY 4_SCH=C,Zone Air Relative Humidity [%] !Daily [Value,Min,Hour,Minute,Max,Hour,Minute]
1288,1,ALL_ST=LOBBY - PERFORMANCE ARTS_FL=STORY 2_SCH=C,Zone Air Temperature [C] !Hourly
1289,7,ALL_ST=LOBBY - PERFORMANCE ARTS_FL=STORY 2_SCH=C,Zone Air Relative Humidity [%] !Daily [Value,Min,Hour,Minute,Max,Hour,Minute]
1328,1,ALL_ST=LOUNGE/RECREATION_FL=STORY 4_SCH=B,Zone Air Temperature [C] !Hourly
1329,7,ALL_ST=LOUNGE/RECREATION_FL=STORY 4_SCH=B,Zone Air Relative Humidity [%] !Daily [Value,Min,Hour,Minute,Max,Hour,Minute]
1368,1,ALL_ST=MFG - 7.5 <= BAY H <= 15M_FL=STORY 3_SCH=A,Zone Air Temperature [C] !Hourly
1369,7,ALL_ST=MFG - 7.5 <= BAY H <= 15M_FL=STORY 3_SCH=A,Zone Air Relative Humidity [%] !Daily [Value,Min,Hour,Minute,Max,Hour,Minute]
1408,1,ALL_ST=MFG - BAY H < 7.5M_FL=STORY 1_SCH=A,Zone Air Temperature [C] !Hourly
1409,7,ALL_ST=MFG - BAY H < 7.5M_FL=STORY 1_SCH=A,Zone Air Relative Humidity [%] !Daily [Value,Min,Hour,Minute,Max,Hour,Minute]
1448,1,ALL_ST=MFG - BAY H > 15M_FL=STORY 3_SCH=A,Zone Air Temperature [C] !Hourly
1449,7,ALL_ST=MFG - BAY H > 15M_FL=STORY 3_SCH=A,Zone Air Relative Humidity [%] !Daily [Value,Min,Hour,Minute,Max,Hour,Minute]
1488,1,WILD_ST=MFG - CORR. < 2.4M-SCH-A_FL=STORY 3_SCH=C,Zone Air Temperature [C] !Hourly
1489,7,WILD_ST=MFG - CORR. < 2.4M-SCH-A_FL=STORY 3_SCH=C,Zone Air Relative Humidity [%] !Daily [Value,Min,Hour,Minute,Max,Hour,Minute]
1528,1,WILD_ST=MFG - CORR. < 2.4M-SCH-B_FL=STORY 1_SCH=C,Zone Air Temperature [C] !Hourly
1529,7,WILD_ST=MFG - CORR. < 2.4M-SCH-B_FL=STORY 1_SCH=C,Zone Air Relative Humidity [%] !Daily [Value,Min,Hour,Minute,Max,Hour,Minute]
1568,1,WILD_ST=MFG - CORR. < 2.4M-SCH-C_FL=STORY 4_SCH=C,Zone Air Temperature [C] !Hourly
1569,7,WILD_ST=MFG - CORR. < 2.4M-SCH-C_FL=STORY 4_SCH=C,Zone Air Relative Humidity [%] !Daily [Value,Min,Hour,Minute,Max,Hour,Minute]
1608,1,WILD_ST=MFG - CORR. < 2.4M-SCH-D_FL=STORY 2_SCH=C,Zone Air Temperature [C] !Hourly
1609,7,WILD_ST=MFG - CORR. < 2.4M-SCH-D_FL=STORY 2_SCH=C,Zone Air Relative Humidity [%] !Daily [Value,Min,Hour,Minute,Max,Hour,Minute]
1648,1,WILD_ST=MFG - CORR. < 2.4M-SCH-E_FL=STORY 2_SCH=C,Zone Air Temperature [C] !Hourly
1649,7,WILD_ST=MFG - CORR. < 2.4M-SCH-E_FL=STORY 2_SCH=C,Zone Air Relative Humidity [%] !Daily [Value,Min,Hour,Minute,Max,Hour,Minute]
1688,1,WILD_ST=MFG - CORR. < 2.4M-SCH-F_FL=STORY 3_SCH=C,Zone Air Temperature [C] !Hourly
1689,7,WILD_ST=MFG - CORR. < 2.4M-SCH-F_FL=STORY 3_SCH=C,Zone Air Relative Humidity [%] !Daily [Value,Min,Hour,Minute,Max,Hour,Minute]
1728,1,WILD_ST=MFG - CORR. < 2.4M-SCH-G_FL=STORY 2_SCH=C,Zone Air Temperature [C] !Hourly
1729,7,WILD_ST=MFG - CORR. < 2.4M-SCH-G_FL=STORY 2_SCH=C,Zone Air Relative Humidity [%] !Daily [Value,Min,Hour,Minute,Max,Hour,Minute]
1768,1,WILD_ST=MFG - CORR. < 2.4M-SCH-H_FL=STORY 2_SCH=C,Zone Air Temperature [C] !Hourly
1769,7,WILD_ST=MFG - CORR. < 2.4M-SCH-H_FL=STORY 2_SCH=C,Zone Air Relative Humidity [%] !Daily [Value,Min,Hour,Minute,Max,Hour,Minute]
10,1,Electricity:Facility [J] !TimeStep
774,1,Gas:Facility [J] !TimeStep
End of Data Dictionary
1,FORT MCMURRAY AP ANN CLG .4% CONDNS DB=>MWB,  56.65,-111.22,  -7.00, 369.10
2,1, 7,21, 0, 1, 0.00,10.00,SummerDesignDay
8,14.218136923962174
10,65807029.672622989
774,12000.0
2,1, 7,21, 0, 1,10.00,20.00,SummerDesignDay
8,14.171982153293495
10,65470341.43519975
774,18809458.550959115
2,1, 7,21, 0, 1,20.00,30.00,SummerDesignDay
8,14.125744780286427
10,65310795.30644244
774,12000.0
2,1, 7,21, 0, 1,30.00,40.00,SummerDesignDay
8,14.079436086331978
10,65157955.60552744
774,18773176.60775162
2,1, 7,21, 0, 1,40.00,50.00,SummerDesignDay
8,14.033050387896898
10,65003320.64913389
774,12000.0
2,1, 7,21, 0, 1,50.00,60.00,SummerDesignDay
8,13.986581233564835
10,64849946.2158132
774,18730666.24019926
2,1, 7,21, 0, 1, 0.00,60.00,SummerDesignDay
1008,22.10219458550711
1048,23.63940448944264
1088,20.845081054660253
1128,23.377447268817748
1168,20.771340087613905
1208,20.598368118881476
1248,20.58450308118869
1288,21.418530138264904
1328,23.99957404050846
1368,23.775696966342197
1408,22.9573870465323
1448,23.57904545556683
1488,23.41776016742037
1528,22.559860992520389
1568,21.770376886317125
1608,23.56013146101523
1648,23.320791424587026
1688,23.189808595122185
1728,22.76669103360626
1768,22.7771142731189
2,1, 7,21, 0, 2, 0.00,10.00,SummerDesignDay
8,13.95555882260429
10,58404761.71333324
774,12000.0
2,1, 7,21, 0, 2,10.00,20.00,SummerDesignDay
8,13.924507755336454
10,58404742.93008448
774,18258422.992168737
2,1, 7,21, 0, 2,20.00,30.00,SummerDesignDay
8,13.893416042989206
10,58404725.618771437
774,669679.6116973634
2,1, 7,21, 0, 2,30.00,40.00,SummerDesignDay
8,13.862289589689029
10,58404708.75731806
774,18275395.05711488
2,1, 7,21, 0, 2,40.00,50.00,SummerDesignDay
8,13.831134407608739
10,58404692.02937544
774,12000.0
2,1, 7,21, 0, 2,50.00,60.00,SummerDesignDay
8,13.799938415548118
10,58404675.34733423
774,18292391.48403595
2,1, 7,21, 0, 2, 0.00,60.00,SummerDesignDay
1008,21.580556978005295
1048,23.414696150701105
1088,20.570860270485185
1128,23.25530447054778
1168,20.339868763441044
1208,20.176422890530178
1248,20.044380980416368
1288,20.989943419131767
1328,23.577417941113344
1368,23.43820976381871
1408,22.66716382461985
1448,23.2935223338193
1488,23.04734902078543
1528,22.2931371815543
1568,21.304703194179884
1608,23.260267778090719
1648,23.07055468304247
1688,22.82901476733097
1728,22.47033486991742
1768,22.537079134271165
2,1, 7,21, 0, 3, 0.00,10.00,SummerDesignDay
8,13.776521671948676
10,52728705.91775084
774,12000.0
2,1, 7,21, 0, 3,10.00,20.00,SummerDesignDay
8,13.753085235778466
10,52728692.38146267
774,900081.4489777823
2,1, 7,21, 0, 3,20.00,30.00,SummerDesignDay
8,13.729636002354969
10,52728679.58014881
774,1038462.174320149
2,1, 7,21, 0, 3,30.00,40.00,SummerDesignDay
8,13.706147375533054
10,52728667.00678652
774,17473337.73329259
2,1, 7,21, 0, 3,40.00,50.00,SummerDesignDay
8,13.682651961920304
10,52696071.94403938
774,691174.558586702
2,1, 7,21, 0, 3,50.00,60.00,SummerDesignDay
8,13.659136670643687
10,52644541.91817455
774,12000.0
2,1, 7,21, 0, 3, 0.00,60.00,SummerDesignDay
1008,21.1612943891366
1048,23.193834312905666
1088,20.311969439204206
1128,23.13355095155733
1168,20.012969773444757
1208,19.86107581571227
1248,19.62524817630463
1288,20.65775449911332
1328,22.618797934507538
1368,23.152758645546965
1408,22.436455764194979
1448,23.052998993554394
1488,22.724497917957053
1528,22.072131187763064
1568,20.924086875868544
1608,23.010407988527164
1648,22.861014092571286
1688,22.5227004266541
1728,22.22265219084881
1768,22.338560856066605
2,1, 7,21, 0, 4, 0.00,10.00,SummerDesignDay
8,13.63560137410855
10,52592968.84504863
774,12000.0
2,1, 7,21, 0, 4,10.00,20.00,SummerDesignDay
8,13.612040802606578
10,52541405.64010123
774,12000.0
2,1, 7,21, 0, 4,20.00,30.00,SummerDesignDay
8,13.58846620506876
10,52489869.70166854
774,16656843.4256514
2,1, 7,21, 0, 4,30.00,40.00,SummerDesignDay
8,13.56487178447336
10,52438366.29741206
774,12000.0
2,1, 7,21, 0, 4,40.00,50.00,SummerDesignDay
8,13.541257354069103
10,52386898.34459893
774,12000.0
2,1, 7,21, 0, 4,50.00,60.00,SummerDesignDay
8,13.517617463812285
10,52335470.73707701
774,12000.0
2,1, 7,21, 0, 4, 0.00,60.00,SummerDesignDay
1008,20.79257478922665
1048,22.976339363264278
1088,20.063485817476147
1128,23.012879806107596
1168,19.724869098284306
1208,19.5850835228903
1248,19.257006667474398
1288,20.359925410807354
1328,21.89317850746677
1368,22.887982890139953
1408,22.23078061296609
1448,22.81786477470186
1488,22.421064935751514
1528,21.869801915371935
1568,20.584063426512058
1608,22.78040137655569
1648,22.66612873172011
1688,22.23779648482713
1728,21.992541127274877
1768,22.154862446663374
2,1, 7,21, 0, 5, 0.00,10.00,SummerDesignDay
8,13.50185415824011
10,52298690.6076733
774,12000.0
2,1, 7,21, 0, 5,10.00,20.00,SummerDesignDay
8,13.486076034032447
10,52263620.65138438
774,14696453.308330398
2,1, 7,21, 0, 5,20.00,30.00,SummerDesignDay
8,13.470289340350983
10,52229450.38224351
774,1949996.6905399033
2,1, 7,21, 0, 5,30.00,40.00,SummerDesignDay
8,13.454493322631063
10,52196227.54387582
774,12000.0
2,1, 7,21, 0, 5,40.00,50.00,SummerDesignDay
8,13.438688835118548
10,52163571.27742962
774,12000.0
2,1, 7,21, 0, 5,50.00,60.00,SummerDesignDay
8,13.422888173889437
10,52131227.67723902
774,12000.0
2,1, 7,21, 0, 5, 0.00,60.00,SummerDesignDay
1008,20.67744802972615
1048,22.76946618549592
1088,19.903228406248599
1128,22.893041282304919
1168,19.46831351356541
1208,19.34056036458505
1248,18.982192469266655
1288,20.096330200628495
1328,21.5551813872398
1368,22.696894974841439
1408,22.0403099694767
1448,22.58642434207614
1488,22.13914624527699
1528,21.67854532295048
1568,20.4410242824496
1608,22.570672401833805
1648,22.542565606128379
1688,22.067152621733368
1728,21.872628600166747
1768,21.9801317796633
2,1, 7,21, 0, 6, 0.00,10.00,SummerDesignDay
8,13.438688835118548
10,52157553.99415519
774,9613096.15402618
2,1, 7,21, 0, 6,10.00,20.00,SummerDesignDay
8,13.454493322631063
10,52190932.70768846
774,6914593.0653695589
2,1, 7,21, 0, 6,20.00,30.00,SummerDesignDay
8,13.470289340350983
10,52224834.01164716
774,12000.0
2,1, 7,21, 0, 6,30.00,40.00,SummerDesignDay
8,13.486076034032447
10,52259164.36333064
774,12000.0
2,1, 7,21, 0, 6,40.00,50.00,SummerDesignDay
8,13.50185415824011
10,52293854.594992768
774,12000.0
2,1, 7,21, 0, 6,50.00,60.00,SummerDesignDay
8,13.517617463812285
10,52328843.704610008
774,5628904.744388015
2,1, 7,21, 0, 6, 0.00,60.00,SummerDesignDay
1008,21.41178633103176
1048,22.59416413319514
1088,19.99316570501289
1128,22.774847952352859
1168,19.38030282053343
1208,19.257919022609984
1248,19.023675200087
1288,19.998746442110968
1328,21.55091776364395
1368,22.64451492040951
1408,21.932705653621399
1448,22.434820242527313
1488,21.96444158853237
1528,21.560821707368363
1568,20.67422958104231
1608,22.459277489321975
1648,22.540530994583084
1688,22.310840059430018
1728,22.15407364836628
1768,21.88074250710393
2,1, 7,21, 0, 7, 0.00,10.00,SummerDesignDay
8,13.572736920571789
10,52437092.49375474
774,10810171.291181237
2,1, 7,21, 0, 7,10.00,20.00,SummerDesignDay
8,13.627748229152554
10,52554114.81736352
774,12000.0
2,1, 7,21, 0, 7,20.00,30.00,SummerDesignDay
8,13.682651961920304
10,52936593.16637968
774,12000.0
2,1, 7,21, 0, 7,30.00,40.00,SummerDesignDay
8,13.737448093244995
10,52728389.021321769
774,12000.0
2,1, 7,21, 0, 7,40.00,50.00,SummerDesignDay
8,13.792137011831216
10,53007369.60882149
774,2724457.083473558
2,1, 7,21, 0, 7,50.00,60.00,SummerDesignDay
8,13.846719282840333
10,52991281.03427177
774,13657534.953661468
2,1, 7,21, 0, 7, 0.00,60.00,SummerDesignDay
1008,22.52502000637261
1048,22.44979413984306
1088,20.306758786117773
1128,22.66221329003515
1168,19.622083723321514
1208,19.490621583431737
1248,19.523558774443889
1288,20.200697585950857
1328,21.91880267327669
1368,22.63147847845681
1408,21.995921958272306
1448,22.451904191071333
1488,21.966746197083979
1528,21.588483686525213
1568,21.019532314544809
1608,22.50331242902619
1648,22.537869054055564
1688,22.760388103212369
1728,22.597557743534336
1768,21.919925469241279
2,1, 7,21, 0, 8, 0.00,10.00,SummerDesignDay
8,13.978831900527043
10,75922037.15693982
774,11973282.193642442
2,1, 7,21, 0, 8,10.00,20.00,SummerDesignDay
8,14.110321014287419
10,77337740.24018532
774,12000.0
2,1, 7,21, 0, 8,20.00,30.00,SummerDesignDay
8,14.241191509616986
10,80456863.23065935
774,13120359.782004487
2,1, 7,21, 0, 8,30.00,40.00,SummerDesignDay
8,14.371447531304272
10,80166879.90409906
774,3917779.599847566
2,1, 7,21, 0, 8,40.00,50.00,SummerDesignDay
8,14.501093766564925
10,81060393.5233608
774,12000.0
2,1, 7,21, 0, 8,50.00,60.00,SummerDesignDay
8,14.630134792273804
10,82052181.55834441
774,12000.0
2,1, 7,21, 0, 8, 0.00,60.00,SummerDesignDay
1008,23.888509093701626
1048,22.35611652757707
1088,20.963615766968315
1128,22.566982422422695
1168,20.428218944028264
1208,20.32099984314024
1248,20.77638408009288
1288,20.894512250659337
1328,22.84131076460777
1368,23.22680469441251
1408,22.677703288103158
1448,23.031082818724984
1488,22.25128630464157
1528,21.850670338847153
1568,21.995799559069054
1608,22.793868295147648
1648,22.78393936257827
1688,23.410400595338545
1728,23.17950882525065
1768,22.17910931747969
2,1, 7,21, 0, 9, 0.00,10.00,SummerDesignDay
8,14.773641492809972
10,220837976.71004889
774,103290949.43812041
2,1, 7,21, 0, 9,10.00,20.00,SummerDesignDay
8,14.91640948124148
10,225007440.209136
774,28743022.047762503
2,1, 7,21, 0, 9,20.00,30.00,SummerDesignDay
8,15.05843890714102
10,233175167.2678514
774,23674175.265760755
2,1, 7,21, 0, 9,30.00,40.00,SummerDesignDay
8,15.199735893563798
10,235305134.50536899
774,7333150.219693176
2,1, 7,21, 0, 9,40.00,50.00,SummerDesignDay
8,15.340306256439395
10,237537060.22221814
774,14985656.116096827
2,1, 7,21, 0, 9,50.00,60.00,SummerDesignDay
8,15.48015101768072
10,241905993.4635617
774,22281708.993616668
2,1, 7,21, 0, 9, 0.00,60.00,SummerDesignDay
1008,23.999033206702838
1048,22.690223069709665
1088,22.805135217234484
1128,23.320565974796066
1168,22.291640978960094
1208,22.208095298534816
1248,23.18186437581431
1288,22.718598576267636
1328,23.9092987275847
1368,23.979461088642578
1408,23.877419097430079
1448,23.943169050892256
1488,23.03670301287666
1528,22.586167696788495
1568,23.87111118620948
1608,23.517924183356639
1648,23.472293628206687
1688,24.427948261342327
1728,24.07666006019934
1768,22.873175310616973
2,1, 7,21, 0,10, 0.00,10.00,SummerDesignDay
8,15.60467292907716
10,331542937.8875233
774,28622203.920517528
2,1, 7,21, 0,10,10.00,20.00,SummerDesignDay
8,15.72862731650033
10,340471639.62681469
774,29515155.80301707
2,1, 7,21, 0,10,20.00,30.00,SummerDesignDay
8,15.852017409284228
10,351809517.2874811
774,29499937.839657926
2,1, 7,21, 0,10,30.00,40.00,SummerDesignDay
8,15.974848118364367
10,357771226.24448677
774,29507670.934936245
2,1, 7,21, 0,10,40.00,50.00,SummerDesignDay
8,16.097123145563505
10,367500878.3116707
774,29555778.963389685
2,1, 7,21, 0,10,50.00,60.00,SummerDesignDay
8,16.218846351168599
10,376159981.90673449
774,28724029.284166594
2,1, 7,21, 0,10, 0.00,60.00,SummerDesignDay
1008,23.998426933215474
1048,23.32373428003184
1088,23.95760074878339
1128,23.991805849699529
1168,23.670096513164784
1208,23.538112953058787
1248,23.99955351033424
1288,23.954221094712837
1328,23.999586353695418
1368,23.99941728932635
1408,23.999317632218767
1448,23.999427988486294
1488,23.944197975144467
1528,23.43879724227672
1568,25.714245277156434
1608,24.218952486518153
1648,24.204659769101978
1688,25.241696354658818
1728,24.80141499064342
1768,23.649371463903774
2,1, 7,21, 0,11, 0.00,10.00,SummerDesignDay
8,16.325793027093189
10,390926004.4990793
774,36574316.59515059
2,1, 7,21, 0,11,10.00,20.00,SummerDesignDay
8,16.432322158488288
10,399020146.12729266
774,37300489.18197972
2,1, 7,21, 0,11,20.00,30.00,SummerDesignDay
8,16.538424180249178
10,406358009.11879989
774,37256735.0720783
2,1, 7,21, 0,11,30.00,40.00,SummerDesignDay
8,16.644108396469087
10,413540896.1865869
774,49201950.36492608
2,1, 7,21, 0,11,40.00,50.00,SummerDesignDay
8,16.749376736593655
10,420555453.8757054
774,47172248.067201968
2,1, 7,21, 0,11,50.00,60.00,SummerDesignDay
8,16.854232613237156
10,427396250.9003389
774,37322227.87637072
2,1, 7,21, 0,11, 0.00,60.00,SummerDesignDay
1008,23.997785905785326
1048,23.819313690389597
1088,23.999783768436683
1128,23.99969671304788
1168,23.999703789229757
1208,23.999241664381775
1248,23.9994503435354
1288,23.999724601399547
1328,23.999061488178485
1368,23.999191339782486
1408,23.99911764857266
1448,23.99921540030533
1488,23.999938701713508
1528,23.204660355419024
1568,26.023769917630664
1608,23.928704856521106
1648,24.008901464564756
1688,24.779055683487689
1728,24.281517457349897
1768,23.377038477036867
2,1, 7,21, 0,12, 0.00,10.00,SummerDesignDay
8,16.92390823520069
10,436780331.5410206
774,36487108.79587875
2,1, 7,21, 0,12,10.00,20.00,SummerDesignDay
8,16.99340178950456
10,442148299.07871076
774,36357126.40693649
2,1, 7,21, 0,12,20.00,30.00,SummerDesignDay
8,17.06272006743463
10,447231958.20066907
774,47060030.04663896
2,1, 7,21, 0,12,30.00,40.00,SummerDesignDay
8,17.131853229172639
10,452262715.8219793
774,48411207.5042282
2,1, 7,21, 0,12,40.00,50.00,SummerDesignDay
8,17.200807172194087
10,457151555.7795522
774,36441052.261172559
2,1, 7,21, 0,12,50.00,60.00,SummerDesignDay
8,17.269582116758607
10,461929034.0948581
774,36414782.58697335
2,1, 7,21, 0,12, 0.00,60.00,SummerDesignDay
1008,23.997415300244616
1048,23.99931792007295
1088,23.999546234305087
1128,23.999533578546719
1168,23.999966115651636
1208,24.000009313228835
1248,23.99934548082849
1288,23.99969837444466
1328,23.998626028716257
1368,23.999071504370819
1408,23.999037448248143
1448,23.999108801658733
1488,23.999947885565974
1528,22.816325962740917
1568,25.94805688036268
1608,23.540073204044054
1648,23.684895738195647
1688,24.183444734064186
1728,23.61622922740266
1768,22.967807472566446
2,1, 7,21, 0,13, 0.00,10.00,SummerDesignDay
8,17.32447360221357
10,468588124.38836368
774,50923406.94291393
2,1, 7,21, 0,13,10.00,20.00,SummerDesignDay
8,17.379251291230806
10,473167609.77454307
774,48819033.955014068
2,1, 7,21, 0,13,20.00,30.00,SummerDesignDay
8,17.433921312061729
10,477247003.29620769
774,54195203.85473561
2,1, 7,21, 0,13,30.00,40.00,SummerDesignDay
8,17.488473222557489
10,481401704.3279931
774,45718254.72229294
2,1, 7,21, 0,13,40.00,50.00,SummerDesignDay
8,17.542913447755134
10,485325763.03087249
774,57261022.47777752
2,1, 7,21, 0,13,50.00,60.00,SummerDesignDay
8,17.59724609886134
10,489191277.5138219
774,42664379.99683873
2,1, 7,21, 0,13, 0.00,60.00,SummerDesignDay
1008,23.997678897841579
1048,23.999333740618085
1088,23.99927194942785
1128,23.999314507044745
1168,23.99981415648861
1208,23.999870535879926
1248,23.99900009231926
1288,23.99949452689837
1328,23.998007539775789
1368,23.999143742813449
1408,23.999134601330196
1448,23.99919350947246
1488,24.00002276479131
1528,22.529439054728998
1568,25.746973699048835
1608,23.225549219030645
1648,23.423768863434476
1688,23.808074103475084
1728,23.188110799943375
1768,22.653737084973888
2,1, 7,21, 0,14, 0.00,10.00,SummerDesignDay
8,17.6311450462694
10,491601178.53002509
774,59095557.65073562
2,1, 7,21, 0,14,10.00,20.00,SummerDesignDay
8,17.665000449016245
10,494367770.86676886
774,41266187.979996379
2,1, 7,21, 0,14,20.00,30.00,SummerDesignDay
8,17.698812743128934
10,497216296.798648
774,59095557.65073562
2,1, 7,21, 0,14,30.00,40.00,SummerDesignDay
8,17.732582050940107
10,500034841.73873987
774,41237524.66013992
2,1, 7,21, 0,14,40.00,50.00,SummerDesignDay
8,17.766307345121004
10,502798270.390404
774,59095557.65073562
2,1, 7,21, 0,14,50.00,60.00,SummerDesignDay
8,17.79999023167558
10,505471326.86046519
774,50461332.494204137
2,1, 7,21, 0,14, 0.00,60.00,SummerDesignDay
1008,23.99795368175856
1048,23.99912559209447
1088,23.999069190742408
1128,23.99903734988132
1168,23.999729698957724
1208,23.999792358069997
1248,23.99872424971961
1288,23.999332844243758
1328,23.997659409047246
1368,23.999264812012027
1408,23.999133688825695
1448,23.999270735702785
1488,23.99995566776433
1528,22.369566947861548
1568,25.53141320672734
1608,23.065987691809054
1648,23.269118068672129
1688,23.61330222655084
1728,22.94627142511024
1768,22.465029892214785
2,1, 7,21, 0,15, 0.00,10.00,SummerDesignDay
8,17.79999023167558
10,506549021.2944854
774,49882228.30223975
2,1, 7,21, 0,15,10.00,20.00,SummerDesignDay
8,17.79999023167558
10,507164242.6321066
774,59095557.65073562
2,1, 7,21, 0,15,20.00,30.00,SummerDesignDay
8,17.79999023167558
10,507819341.3302813
774,41265661.26121509
2,1, 7,21, 0,15,30.00,40.00,SummerDesignDay
8,17.79999023167558
10,508383823.58930107
774,59095557.65073562
2,1, 7,21, 0,15,40.00,50.00,SummerDesignDay
8,17.79999023167558
10,508866949.29421237
774,41237020.381659429
2,1, 7,21, 0,15,50.00,60.00,SummerDesignDay
8,17.79999023167558
10,509226904.0118978
774,59095557.65073562
2,1, 7,21, 0,15, 0.00,60.00,SummerDesignDay
1008,23.99765518797352
1048,23.99898819492974
1088,23.99897167842632
1128,23.998937065676534
1168,23.999721865915878
1208,23.99977974592923
1248,23.998785492318267
1288,23.999334530123887
1328,23.998002849298005
1368,23.999037765242134
1408,23.998926989153845
1448,23.99906403670916
1488,23.999911507934756
1528,22.355585371862195
1568,25.346645489430057
1608,23.287045503989459
1648,23.24770163905413
1688,23.578580400251174
1728,22.866762151783424
1768,22.42681537151813
2,1, 7,21, 0,16, 0.00,10.00,SummerDesignDay
8,17.759562446305357
10,506286544.7901684
774,40402165.698487367
2,1, 7,21, 0,16,10.00,20.00,SummerDesignDay
8,17.71907809634183
10,504054430.29129979
774,59095557.65073562
2,1, 7,21, 0,16,20.00,30.00,SummerDesignDay
8,17.67853788661001
10,501567657.8426236
774,40324044.7838341
2,1, 7,21, 0,16,30.00,40.00,SummerDesignDay
8,17.63791796367351
10,499189927.5726767
774,59095557.65073562
2,1, 7,21, 0,16,40.00,50.00,SummerDesignDay
8,17.59724609886134
10,496750486.27493396
774,40337730.175245169
2,1, 7,21, 0,16,50.00,60.00,SummerDesignDay
8,17.55650676726033
10,494307979.58215937
774,59095557.65073562
2,1, 7,21, 0,16, 0.00,60.00,SummerDesignDay
1008,23.997421224725274
1048,23.998794051178228
1088,23.99899730974738
1128,23.99890225031429
1168,23.999715594929744
1208,23.99977396201435
1248,23.998917153008475
1288,23.99935434428605
1328,23.99870206852872
1368,23.99880319748272
1408,23.998744977775414
1448,23.99884915554473
1488,23.999904250918353
1528,22.458552024266444
1568,25.13904495908912
1608,23.803277760464327
1648,23.332905278864645
1688,23.65638462425048
1728,22.9073180005005
1768,22.51528575547006
2,1, 7,21, 0,17, 0.00,10.00,SummerDesignDay
8,17.50209486331892
10,492776438.2266914
774,35337713.76477936
2,1, 7,21, 0,17,10.00,20.00,SummerDesignDay
8,17.447570789624618
10,488949182.4096526
774,34598748.7863051
2,1, 7,21, 0,17,20.00,30.00,SummerDesignDay
8,17.392929544208135
10,485735290.39399096
774,34577227.93752804
2,1, 7,21, 0,17,30.00,40.00,SummerDesignDay
8,17.33818013976614
10,482640034.5423774
774,34555458.54280257
2,1, 7,21, 0,17,40.00,50.00,SummerDesignDay
8,17.283317298559309
10,479553103.4825419
774,37209029.19050325
2,1, 7,21, 0,17,50.00,60.00,SummerDesignDay
8,17.22833552437677
10,476388126.3349869
774,42319119.59636563
2,1, 7,21, 0,17, 0.00,60.00,SummerDesignDay
1008,23.997595374388984
1048,23.998816432620644
1088,23.99914277774485
1128,23.998883679207407
1168,23.999733074493279
1208,23.99979424267993
1248,23.999016301301358
1288,23.999356719179106
1328,23.999175383974039
1368,23.998658148489779
1408,23.99866317279606
1448,23.998713382885997
1488,23.999884942474045
1528,22.571186715461626
1568,24.738928519452548
1608,24.205789659931935
1648,23.42645162281609
1688,23.720766078671589
1728,22.954746766865129
1768,22.62542998403457
2,1, 7,21, 0,18, 0.00,10.00,SummerDesignDay
8,17.159453019160176
10,462384500.7622568
774,29752495.772031018
2,1, 7,21, 0,18,10.00,20.00,SummerDesignDay
8,17.090391773337136
10,457708592.828708
774,28811684.673201149
2,1, 7,21, 0,18,20.00,30.00,SummerDesignDay
8,17.021151077964786
10,453557058.08998689
774,28817974.476075349
2,1, 7,21, 0,18,30.00,40.00,SummerDesignDay
8,16.951729380464653
10,449402162.00868245
774,28823870.607178507
2,1, 7,21, 0,18,40.00,50.00,SummerDesignDay
8,16.882126503829249
10,445253357.0933606
774,28829772.359125019
2,1, 7,21, 0,18,50.00,60.00,SummerDesignDay
8,16.812341807494034
10,441075782.6416145
774,27810144.011919008
2,1, 7,21, 0,18, 0.00,60.00,SummerDesignDay
1008,23.998298984121225
1048,23.999025229257414
1088,23.999371462749499
1128,23.999013347761374
1168,23.999729370964347
1208,23.999787857564085
1248,23.999093632240819
1288,23.999289817448827
1328,23.99934251651763
1368,23.99878022800794
1408,23.998764686058256
1448,23.99882988166424
1488,23.99980029353452
1528,22.631743658179969
1568,24.12663832966388
1608,24.433647539417995
1648,23.47372207112897
1688,23.719627726191388
1728,22.95725908189445
1768,22.695459313745777
2,1, 7,21, 0,19, 0.00,10.00,SummerDesignDay
8,16.707321072823203
10,383902952.8540365
774,15721088.386486832
2,1, 7,21, 0,19,10.00,20.00,SummerDesignDay
8,16.601881826644556
10,377042651.05977699
774,14100529.652835152
2,1, 7,21, 0,19,20.00,30.00,SummerDesignDay
8,16.496030555252849
10,370862234.0744817
774,18731732.573306219
2,1, 7,21, 0,19,30.00,40.00,SummerDesignDay
8,16.389760181474104
10,364615812.7157594
774,23679749.90740206
2,1, 7,21, 0,19,40.00,50.00,SummerDesignDay
8,16.283067654262039
10,358431069.892869
774,23709886.373302044
2,1, 7,21, 0,19,50.00,60.00,SummerDesignDay
8,16.17595057957811
10,352213605.82869866
774,23743509.550995783
2,1, 7,21, 0,19, 0.00,60.00,SummerDesignDay
1008,23.9992713229762
1048,23.99932547537368
1088,23.99962303534258
1128,23.999233184376324
1168,23.999772850292726
1208,23.9998171520197
1248,23.99941626953967
1288,23.999452594598837
1328,23.99921094476423
1368,23.999328845367768
1408,23.999397012173494
1448,23.99937725907934
1488,23.999806910848919
1528,22.691425277455904
1568,23.535974425735206
1608,24.51866916740235
1648,23.528492799533866
1688,23.69890969363225
1728,22.964014338640117
1768,22.76897112726968
2,1, 7,21, 0,20, 0.00,10.00,SummerDesignDay
8,16.097123145563505
10,260882768.22425107
774,18624343.68488136
2,1, 7,21, 0,20,10.00,20.00,SummerDesignDay
8,16.018070242471564
10,254762674.20280133
774,3711129.843218154
2,1, 7,21, 0,20,20.00,30.00,SummerDesignDay
8,15.938779752340516
10,249564353.40277756
774,21010902.596996968
2,1, 7,21, 0,20,30.00,40.00,SummerDesignDay
8,15.85926152575189
10,244350143.72676946
774,21563336.911532299
2,1, 7,21, 0,20,40.00,50.00,SummerDesignDay
8,15.779503718563929
10,239416859.0037861
774,21651062.398260688
2,1, 7,21, 0,20,50.00,60.00,SummerDesignDay
8,15.699515709672767
10,234874044.99863253
774,5995537.621448237
2,1, 7,21, 0,20, 0.00,60.00,SummerDesignDay
1008,23.999758535539475
1048,23.999630999550335
1088,23.999668583119037
1128,23.999525095479219
1168,23.997341592988389
1208,23.976848858450479
1248,23.999768519675816
1288,23.999753905033136
1328,23.9988980270481
1368,23.999689577912084
1408,23.99978307571837
1448,23.99974095551764
1488,23.99988915536329
1528,22.739821374136694
1568,23.22019840004231
1608,24.43087702081814
1648,23.633103680357917
1688,23.689782374514583
1728,22.997395577328509
1768,22.839566999343693
2,1, 7,21, 0,21, 0.00,10.00,SummerDesignDay
8,15.63389147320404
10,213391371.9616199
774,16948183.783262787
2,1, 7,21, 0,21,10.00,20.00,SummerDesignDay
8,15.56810827419793
10,209617683.24974964
774,23631367.503185415
2,1, 7,21, 0,21,20.00,30.00,SummerDesignDay
8,15.502170882753524
10,206072005.74079154
774,23660686.878755779
2,1, 7,21, 0,21,30.00,40.00,SummerDesignDay
8,15.436068032613852
10,202410346.19014395
774,23694972.027617214
2,1, 7,21, 0,21,40.00,50.00,SummerDesignDay
8,15.369804371206009
10,199495135.24446628
774,23729337.773370856
2,1, 7,21, 0,21,50.00,60.00,SummerDesignDay
8,15.303384603594449
10,196448876.56781323
774,16344807.797458772
2,1, 7,21, 0,21, 0.00,60.00,SummerDesignDay
1008,23.999875142728106
1048,23.999661110901788
1088,23.808493361051004
1128,23.999608572199749
1168,23.612657833485199
1208,23.426081329353015
1248,23.976305248724
1288,23.999906995922545
1328,23.99877622645457
1368,23.999831187027146
1408,23.999888875944465
1448,23.9998612015641
1488,23.99995828653118
1528,22.814372754644908
1568,22.933708823948395
1608,24.17190708497793
1648,23.695972637534358
1688,23.6830210347886
1728,23.04982309815627
1768,22.929371594577817
2,1, 7,21, 0,22, 0.00,10.00,SummerDesignDay
8,15.236797685071274
10,74558841.38747128
774,6867724.542830197
2,1, 7,21, 0,22,10.00,20.00,SummerDesignDay
8,15.170047891787942
10,74402661.71524292
774,21888969.347814803
2,1, 7,21, 0,22,20.00,30.00,SummerDesignDay
8,15.103134826860483
10,74147155.90752964
774,21925093.862998833
2,1, 7,21, 0,22,30.00,40.00,SummerDesignDay
8,15.036063385178485
10,73955957.0914737
774,21902365.254062188