Program Version,EnergyPlus, Version 8.9.0-eba93e8e1b, YMD=2019.03.19 18:36
1,5,Environment Title[],Latitude[deg],Longitude[deg],Time Zone[],Elevation[m]
2,8,Day of Simulation[],Month[],Day of Month[],DST Indicator[1=yes 0=no],Hour[],StartMinute[],EndMinute[],DayType
3,5,Cumulative Day of Simulation[],Month[],Day of Month[],DST Indicator[1=yes 0=no],DayType  ! When Daily Report Variables Requested
4,2,Cumulative Days of Simulation[],Month[]  ! When Monthly Report Variables Requested
5,1,Cumulative Days of Simulation[] ! When Run Period Report Variables Requested
6,1,Calendar Year of Simulation[] ! When Annual Report Variables Requested
7,9,Environment,Site Outdoor Air Drybulb Temperature [C] !Monthly [Value,Min,Day,Hour,Minute,Max,Day,Hour,Minute]
8,1,Environment,Site Outdoor Air Wetbulb Temperature [C] !TimeStep
1112,1,ALL_ST=DINING - BAR LOUNGE/LEISURE_FL=STORY 4_SCH=B,Zone Air Temperature [C] !Hourly
1113,7,ALL_ST=DINING - BAR LOUNGE/LEISURE_FL=STORY 4_SCH=B,Zone Air Relative Humidity [%] !Daily [Value,Min,Hour,Minute,Max,Hour,Minute]
1152,1,ALL_ST=DINING - FAMILY SPACE_FL=STORY 4_SCH=B,Zone Air Temperature [C] !Hourly
1153,7,ALL_ST=DINING - FAMILY SPACE_FL=STORY 4_SCH=B,Zone Air Relative Humidity [%] !Daily [Value,Min,Hour,Minute,Max,Hour,Minute]
1192,1,ALL_ST=DINING - OTHER_FL=STORY 4_SCH=B,Zone Air Temperature [C] !Hourly
1193,7,ALL_ST=DINING - OTHER_FL=STORY 4_SCH=B,Zone Air Relative Humidity [%] !Daily [Value,Min,Hour,Minute,Max,Hour,Minute]
1232,1,ALL_ST=DRESS./FITT. - PERFORMANCE ARTS_FL=STORY 3_SCH=C,Zone Air Temperature [C] !Hourly
1233,7,ALL_ST=DRESS./FITT. - PERFORMANCE ARTS_FL=STORY 3_SCH=C,Zone Air Relative Humidity [%] !Daily [Value,Min,Hour,Minute,Max,Hour,Minute]
1272,1,ALL_ST=FIRE STATION - ENGINE ROOM_FL=STORY 2_SCH=H,Zone Air Temperature [C] !Hourly
1273,7,ALL_ST=FIRE STATION - ENGINE ROOM_FL=STORY 2_SCH=H,Zone Air Relative Humidity [%] !Daily [Value,Min,Hour,Minute,Max,Hour,Minute]
1312,1,ALL_ST=FOOD PREPARATION - VENTED_FL=STORY 2_SCH=B,Zone Air Temperature [C] !Hourly
1313,7,ALL_ST=FOOD PREPARATION - VENTED_FL=STORY 2_SCH=B,Zone Air Relative Humidity [%] !Daily [Value,Min,Hour,Minute,Max,Hour,Minute]
1352,1,ALL_ST=FOOD PREPARATION_FL=STORY 3_SCH=B,Zone Air Temperature [C] !Hourly
1353,7,ALL_ST=FOOD PREPARATION_FL=STORY 3_SCH=B,Zone Air Relative Humidity [%] !Daily [Value,Min,Hour,Minute,Max,Hour,Minute]
1392,1,ALL_ST=GYM - AUDIENCE_FL=STORY 2_SCH=B,Zone Air Temperature [C] !Hourly
1393,7,ALL_ST=GYM - AUDIENCE_FL=STORY 2_SCH=B,Zone Air Relative Humidity [%] !Daily [Value,Min,Hour,Minute,Max,Hour,Minute]
1432,1,DU_BT=SPACE FUNCTION_ST=DORMITORY - LIVING QUARTERS_FL=STORY 3_SCHG,Zone Air Temperature [C] !Hourly
1433,7,DU_BT=SPACE FUNCTION_ST=DORMITORY - LIVING QUARTERS_FL=STORY 3_SCHG,Zone Air Relative Humidity [%] !Daily [Value,Min,Hour,Minute,Max,Hour,Minute]
1472,1,DU_BT=SPACE FUNCTION_ST=DWELLING UNIT(S)_FL=STORY 3_SCHG,Zone Air Temperature [C] !Hourly
1473,7,DU_BT=SPACE FUNCTION_ST=DWELLING UNIT(S)_FL=STORY 3_SCHG,Zone Air Relative Humidity [%] !Daily [Value,Min,Hour,Minute,Max,Hour,Minute]
1512,1,DU_BT=SPACE FUNCTION_ST=FIRE STATION - QUARTERS_FL=STORY 4_SCHG,Zone Air Temperature [C] !Hourly
1513,7,DU_BT=SPACE FUNCTION_ST=FIRE STATION - QUARTERS_FL=STORY 4_SCHG,Zone Air Relative Humidity [%] !Daily [Value,Min,Hour,Minute,Max,Hour,Minute]
1552,1,WILD_ST=ELECTRICAL/MECHANICAL-SCH-A_FL=STORY 1_SCH=B,Zone Air Temperature [C] !Hourly
1553,7,WILD_ST=ELECTRICAL/MECHANICAL-SCH-A_FL=STORY 1_SCH=B,Zone Air Relative Humidity [%] !Daily [Value,Min,Hour,Minute,Max,Hour,Minute]
1592,1,WILD_ST=ELECTRICAL/MECHANICAL-SCH-B_FL=STORY 4_SCH=B,Zone Air Temperature [C] !Hourly
1593,7,WILD_ST=ELECTRICAL/MECHANICAL-SCH-B_FL=STORY 4_SCH=B,Zone Air Relative Humidity [%] !Daily [Value,Min,Hour,Minute,Max,Hour,Minute]
1632,1,WILD_ST=ELECTRICAL/MECHANICAL-SCH-C_FL=STORY 1_SCH=B,Zone Air Temperature [C] !Hourly
1633,7,WILD_ST=ELECTRICAL/MECHANICAL-SCH-C_FL=STORY 1_SCH=B,Zone Air Relative Humidity [%] !Daily [Value,Min,Hour,Minute,Max,Hour,Minute]
1672,1,WILD_ST=ELECTRICAL/MECHANICAL-SCH-D_FL=STORY 1_SCH=B,Zone Air Temperature [C] !Hourly
1673,7,WILD_ST=ELECTRICAL/MECHANICAL-SCH-D_FL=STORY 1_SCH=B,Zone Air Relative Humidity [%] !Daily [Value,Min,Hour,Minute,Max,Hour,Minute]
1712,1,WILD_ST=ELECTRICAL/MECHANICAL-SCH-E_FL=STORY 1_SCH=B,Zone Air Temperature [C] !Hourly
1713,7,WILD_ST=ELECTRICAL/MECHANICAL-SCH-E_FL=STORY 1_SCH=B,Zone Air Relative Humidity [%] !Daily [Value,Min,Hour,Minute,Max,Hour,Minute]
1752,1,WILD_ST=ELECTRICAL/MECHANICAL-SCH-F_FL=STORY 1_SCH=B,Zone Air Temperature [C] !Hourly
1753,7,WILD_ST=ELECTRICAL/MECHANICAL-SCH-F_FL=STORY 1_SCH=B,Zone Air Relative Humidity [%] !Daily [Value,Min,Hour,Minute,Max,Hour,Minute]
1792,1,WILD_ST=ELECTRICAL/MECHANICAL-SCH-G_FL=STORY 2_SCH=B,Zone Air Temperature [C] !Hourly
1793,7,WILD_ST=ELECTRICAL/MECHANICAL-SCH-G_FL=STORY 2_SCH=B,Zone Air Relative Humidity [%] !Daily [Value,Min,Hour,Minute,Max,Hour,Minute]
1832,1,WILD_ST=ELECTRICAL/MECHANICAL-SCH-H_FL=STORY 3_SCH=B,Zone Air Temperature [C] !Hourly
1833,7,WILD_ST=ELECTRICAL/MECHANICAL-SCH-H_FL=STORY 3_SCH=B,Zone Air Relative Humidity [%] !Daily [Value,Min,Hour,Minute,Max,Hour,Minute]
1872,1,WILD_ST=ELECTRICAL/MECHANICAL-SCH-I_FL=STORY 2_SCH=B,Zone Air Temperature [C] !Hourly
1873,7,WILD_ST=ELECTRICAL/MECHANICAL-SCH-I_FL=STORY 2_SCH=B,Zone Air Relative Humidity [%] !Daily [Value,Min,Hour,Minute,Max,Hour,Minute]
10,1,Electricity:Facility [J] !TimeStep
878,1,Gas:Facility [J] !TimeStep
End of Data Dictionary
1,FORT MCMURRAY AP ANN CLG .4% CONDNS DB=>MWB,  56.65,-111.22,  -7.00, 369.10
2,1, 7,21, 0, 1, 0.00,10.00,SummerDesignDay
8,14.218136923962174
10,328308214.22026839
878,100857339.20298243
2,1, 7,21, 0, 1,10.00,20.00,SummerDesignDay
8,14.171982153293495
10,327282453.21795108
878,95672068.83061293
2,1, 7,21, 0, 1,20.00,30.00,SummerDesignDay
8,14.125744780286427
10,326554430.4501455
878,94163899.56453583
2,1, 7,21, 0, 1,30.00,40.00,SummerDesignDay
8,14.079436086331978
10,325843779.69805017
878,94443362.0684324
2,1, 7,21, 0, 1,40.00,50.00,SummerDesignDay
8,14.033050387896898
10,325134205.0354148
878,96410488.29587434
2,1, 7,21, 0, 1,50.00,60.00,SummerDesignDay
8,13.986581233564835
10,324430222.05125287
878,97567527.23888269
2,1, 7,21, 0, 1, 0.00,60.00,SummerDesignDay
1112,22.487501532281788
1152,22.51986584333048
1192,22.166178909003525
1232,24.23933575609072
1272,23.99649524331639
1312,23.998715920937078
1352,23.998856686254599
1392,22.543942910946414
1432,23.99886475050327
1472,23.905950109388347
1512,23.783639650633448
1552,23.9999025293003
1592,21.99985787771728
1632,23.93773886967284
1672,24.0992535461172
1712,23.80913453322353
1752,24.196492894332306
1792,23.017189265584915
1832,23.621033883842956
1872,22.363946900983178
2,1, 7,21, 0, 2, 0.00,10.00,SummerDesignDay
8,13.95555882260429
10,166276974.2578027
878,88075822.07890366
2,1, 7,21, 0, 2,10.00,20.00,SummerDesignDay
8,13.924507755336454
10,166452214.2004482
878,103848452.4559659
2,1, 7,21, 0, 2,20.00,30.00,SummerDesignDay
8,13.893416042989206
10,165538085.0957919
878,107517389.74674414
2,1, 7,21, 0, 2,30.00,40.00,SummerDesignDay
8,13.862289589689029
10,165590184.19859535
878,71517088.0591609
2,1, 7,21, 0, 2,40.00,50.00,SummerDesignDay
8,13.831134407608739
10,165321935.0598401
878,112314059.81579983
2,1, 7,21, 0, 2,50.00,60.00,SummerDesignDay
8,13.799938415548118
10,165446434.4804584
878,115063701.77546293
2,1, 7,21, 0, 2, 0.00,60.00,SummerDesignDay
1112,22.007736419787518
1152,22.010521892748775
1192,22.000012996757275
1232,23.937395301049706
1272,23.99764129509948
1312,24.51389833434951
1352,24.65331707510701
1392,22.071204197118658
1432,23.999481888737859
1472,23.934401842129686
1512,23.792933777282689
1552,25.180154381359576
1592,23.677391378210158
1632,25.082251773040409
1672,25.254210069670405
1712,24.819550421378126
1752,25.212727764730319
1792,24.896664433475917
1832,25.074944162179674
1872,24.551890261111898
2,1, 7,21, 0, 3, 0.00,10.00,SummerDesignDay
8,13.776521671948676
10,65467883.6670733
878,36449679.932688418
2,1, 7,21, 0, 3,10.00,20.00,SummerDesignDay
8,13.753085235778466
10,65273262.564354199
878,2454835.879787163
2,1, 7,21, 0, 3,20.00,30.00,SummerDesignDay
8,13.729636002354969
10,65235474.688186068
878,36502737.98700462
2,1, 7,21, 0, 3,30.00,40.00,SummerDesignDay
8,13.706147375533054
10,65068320.72080314
878,36624601.81113829
2,1, 7,21, 0, 3,40.00,50.00,SummerDesignDay
8,13.682651961920304
10,65235679.7991091
878,36721920.453957889
2,1, 7,21, 0, 3,50.00,60.00,SummerDesignDay
8,13.659136670643687
10,64625589.277603458
878,2930213.679342368
2,1, 7,21, 0, 3, 0.00,60.00,SummerDesignDay
1112,20.62890090924364
1152,20.822193612798598
1192,20.675400743158986
1232,23.69922916023243
1272,23.997714991961016
1312,23.948747593769104
1352,24.10009449774184
1392,21.614104198010869
1432,23.999582044089036
1472,23.93557213200491
1512,23.659946078151227
1552,25.403201841911728
1592,23.974535616773577
1632,25.301286145094186
1672,25.46515227914662
1712,25.049622126756913
1752,25.386468686789529
1792,25.262232975827066
1832,25.309173140669164
1872,25.00953167533991
2,1, 7,21, 0, 4, 0.00,10.00,SummerDesignDay
8,13.63560137410855
10,64623043.55967459
878,36914792.53041293
2,1, 7,21, 0, 4,10.00,20.00,SummerDesignDay
8,13.612040802606578
10,64395838.95718674
878,37050855.94672024
2,1, 7,21, 0, 4,20.00,30.00,SummerDesignDay
8,13.58846620506876
10,64195048.83670535
878,37212385.91308589
2,1, 7,21, 0, 4,30.00,40.00,SummerDesignDay
8,13.56487178447336
10,63992935.95529991
878,31311746.46667631
2,1, 7,21, 0, 4,40.00,50.00,SummerDesignDay
8,13.541257354069103
10,63791193.004940789
878,9561376.205357144
2,1, 7,21, 0, 4,50.00,60.00,SummerDesignDay
8,13.517617463812285
10,63603992.95591063
878,37514008.23014943
2,1, 7,21, 0, 4, 0.00,60.00,SummerDesignDay
1112,19.74675602890437
1152,19.983006465337188
1192,19.805668361339607
1232,23.454090749624986
1272,23.996645663966718
1312,23.438812630998286
1352,23.526735694220294
1392,21.353261282021419
1432,23.999472005786218
1472,23.904948067836278
1512,23.44592361211127
1552,25.086708212747884
1592,23.572757892589519
1632,24.9806202893834
1672,25.136049106199537
1712,24.671666615222166
1752,25.045055038390399
1792,24.985318844580904
1832,24.970196152834477
1872,24.755833867487387
2,1, 7,21, 0, 5, 0.00,10.00,SummerDesignDay
8,13.50185415824011
10,63430084.41861017
878,37636547.30595777
2,1, 7,21, 0, 5,10.00,20.00,SummerDesignDay
8,13.486076034032447
10,63389315.2098699
878,37756016.49199995
2,1, 7,21, 0, 5,20.00,30.00,SummerDesignDay
8,13.470289340350983
10,63331050.897877078
878,3884960.0707689418
2,1, 7,21, 0, 5,30.00,40.00,SummerDesignDay
8,13.454493322631063
10,63286420.43188953
878,37831977.841682847
2,1, 7,21, 0, 5,40.00,50.00,SummerDesignDay
8,13.438688835118548
10,63192447.90371336
878,37937744.29200296
2,1, 7,21, 0, 5,50.00,60.00,SummerDesignDay
8,13.422888173889437
10,63171747.855152498
878,38058921.1247013
2,1, 7,21, 0, 5, 0.00,60.00,SummerDesignDay
1112,19.451177883994477
1152,19.82109131839117
1192,19.600484555051719
1232,23.24435214995576
1272,23.996514742115577
1312,23.231301113573779
1352,23.332983113996649
1392,21.27381056255126
1432,24.00011954815606
1472,23.904564239899867
1512,23.31583422012371
1552,24.953727047654139
1592,23.38216735576761
1632,24.85060628347507
1672,24.987025833779513
1712,24.505096422780999
1752,24.9140188878431
1792,24.832455888354614
1832,24.821710194575546
1872,24.694032706391739
2,1, 7,21, 0, 6, 0.00,10.00,SummerDesignDay
8,13.438688835118548
10,63189344.724744308
878,4531530.066016908
2,1, 7,21, 0, 6,10.00,20.00,SummerDesignDay
8,13.454493322631063
10,63184036.52686181
878,37373220.104509118
2,1, 7,21, 0, 6,20.00,30.00,SummerDesignDay
8,13.470289340350983
10,63170164.26129166
878,37778433.329220909
2,1, 7,21, 0, 6,30.00,40.00,SummerDesignDay
8,13.486076034032447
10,63133363.44853576
878,37742214.120555009
2,1, 7,21, 0, 6,40.00,50.00,SummerDesignDay
8,13.50185415824011
10,63091371.10041119
878,37701336.683161538
2,1, 7,21, 0, 6,50.00,60.00,SummerDesignDay
8,13.517617463812285
10,63053130.65051868
878,3663134.98019072
2,1, 7,21, 0, 6, 0.00,60.00,SummerDesignDay
1112,19.480980971808724
1152,20.46086941370642
1192,19.78674118832694
1232,23.125163067053888
1272,23.996405067949927
1312,23.132608377519973
1352,23.57134722885893
1392,21.20668255806106
1432,23.961359665060895
1472,23.904242761329397
1512,23.43390759509536
1552,24.888326244093933
1592,23.460578768784545
1632,24.799006195989369
1672,24.903569788280845
1712,24.42213622667833
1752,24.857813576043389
1792,24.77410200590113
1832,24.798645274132029
1872,24.992315621207877
2,1, 7,21, 0, 7, 0.00,10.00,SummerDesignDay
8,13.572736920571789
10,66403115.92845854
878,38528570.07828146
2,1, 7,21, 0, 7,10.00,20.00,SummerDesignDay
8,13.627748229152554
10,66567396.01902423
878,55161550.57610537
2,1, 7,21, 0, 7,20.00,30.00,SummerDesignDay
8,13.682651961920304
10,67728928.22630285
878,56581239.195423949
2,1, 7,21, 0, 7,30.00,40.00,SummerDesignDay
8,13.737448093244995
10,67973817.23418272
878,37781070.4106347
2,1, 7,21, 0, 7,40.00,50.00,SummerDesignDay
8,13.792137011831216
10,68183822.8474885
878,37512924.62753629
2,1, 7,21, 0, 7,50.00,60.00,SummerDesignDay
8,13.846719282840333
10,68646646.13532126
878,37246913.5043387
2,1, 7,21, 0, 7, 0.00,60.00,SummerDesignDay
1112,19.96520311315312
1152,21.483004324296073
1192,20.193091894180268
1232,23.16720303939927
1272,23.99647737411571
1312,23.20342874278025
1352,24.027830705903626
1392,21.14499469464111
1432,23.98788582200522
1472,23.903988267479197
1512,23.743197454719267
1552,24.896154396620195
1592,23.80457736724374
1632,24.84458629948892
1672,24.892649558450758
1712,24.414762226557046
1752,24.876153119093499
1792,24.81240558848369
1832,24.747162130064653
1872,25.390437687394696
2,1, 7,21, 0, 8, 0.00,10.00,SummerDesignDay
8,13.978831900527043
10,83271156.446066
878,83598661.70169258
2,1, 7,21, 0, 8,10.00,20.00,SummerDesignDay
8,14.110321014287419
10,86544754.59911531
878,84497263.72949691
2,1, 7,21, 0, 8,20.00,30.00,SummerDesignDay
8,14.241191509616986
10,86724652.95148586
878,83881823.33158927
2,1, 7,21, 0, 8,30.00,40.00,SummerDesignDay
8,14.371447531304272
10,87748629.64890704
878,111581794.69121951
2,1, 7,21, 0, 8,40.00,50.00,SummerDesignDay
8,14.501093766564925
10,88011294.22120872
878,97871788.25767775
2,1, 7,21, 0, 8,50.00,60.00,SummerDesignDay
8,14.630134792273804
10,88157596.41427233
878,83729582.22596924
2,1, 7,21, 0, 8, 0.00,60.00,SummerDesignDay
1112,21.16854293330778
1152,23.001537223555656
1192,21.34430008776153
1232,23.467841491662637
1272,23.997431529164805
1312,23.53879441923907
1352,24.66715659763584
1392,21.088141264341436
1432,23.999020453513709
1472,23.9317541755667
1512,23.84655205079257
1552,24.9995691361573
1592,24.554945627451234
1632,25.002464545989978
1672,24.978429086412804
1712,24.505412980844928
1752,24.979032060137685
1792,24.983621327233334
1832,24.869370755082426
1872,25.81833067707313
2,1, 7,21, 0, 9, 0.00,10.00,SummerDesignDay
8,14.773641492809972
10,146540961.34412898
878,82402164.75851804
2,1, 7,21, 0, 9,10.00,20.00,SummerDesignDay
8,14.91640948124148
10,133517115.14624158
878,84360493.32006042
2,1, 7,21, 0, 9,20.00,30.00,SummerDesignDay
8,15.05843890714102
10,123585347.31021081
878,81255026.29645787
2,1, 7,21, 0, 9,30.00,40.00,SummerDesignDay
8,15.199735893563798
10,124762493.35478263
878,81257986.06089112
2,1, 7,21, 0, 9,40.00,50.00,SummerDesignDay
8,15.340306256439395
10,128894212.90066046
878,81260871.95601839
2,1, 7,21, 0, 9,50.00,60.00,SummerDesignDay
8,15.48015101768072
10,134509644.67531587
878,81263743.33636266
2,1, 7,21, 0, 9, 0.00,60.00,SummerDesignDay
1112,23.050903695451188
1152,23.99555278192264
1192,23.20940425957907
1232,23.96493884505004
1272,23.998209509885898
1312,23.966642611399327
1352,24.02601831445682
1392,21.034098490206654
1432,23.999082991834969
1472,23.952119468051099
1512,23.89184450071782
1552,24.059820453206596
1592,23.230325291281245
1632,24.15987016102427
1672,24.045788255632428
1712,23.655525339642755
1752,24.14956842140685
1792,23.700066928135688
1832,23.822596269180278
1872,24.538836623272649
2,1, 7,21, 0,10, 0.00,10.00,SummerDesignDay
8,15.60467292907716
10,248495597.3951678
878,141080885.67494545
2,1, 7,21, 0,10,10.00,20.00,SummerDesignDay
8,15.72862731650033
10,255834332.38698349
878,110630367.09427639
2,1, 7,21, 0,10,20.00,30.00,SummerDesignDay
8,15.852017409284228
10,261646381.5683961
878,143361812.56026737
2,1, 7,21, 0,10,30.00,40.00,SummerDesignDay
8,15.974848118364367
10,264957293.74392358
878,101832500.05589457
2,1, 7,21, 0,10,40.00,50.00,SummerDesignDay
8,16.097123145563505
10,270030523.8227954
878,143566620.05503578
2,1, 7,21, 0,10,50.00,60.00,SummerDesignDay
8,16.218846351168599
10,274418170.1777439
878,124706490.78516834
2,1, 7,21, 0,10, 0.00,60.00,SummerDesignDay
1112,23.998725376662617
1152,23.99903024110576
1192,23.999216496121375
1232,23.999877780546116
1272,23.99702721604721
1312,23.999660211559179
1352,23.99955884373891
1392,21.92076260634379
1432,23.99887890957441
1472,23.91872745415269
1512,23.82304988920356
1552,23.999899054565366
1592,23.83063403386362
1632,24.191515014263726
1672,23.997648175738786
1712,23.602282994695825
1752,24.150404905828819
1792,23.529281811848166
1832,23.7882209533558
1872,24.341264876873507
2,1, 7,21, 0,11, 0.00,10.00,SummerDesignDay
8,16.325793027093189
10,337981528.193237
878,114625877.92055126
2,1, 7,21, 0,11,10.00,20.00,SummerDesignDay
8,16.432322158488288
10,342280622.3085853
878,118862784.67718573
2,1, 7,21, 0,11,20.00,30.00,SummerDesignDay
8,16.538424180249178
10,346082980.4036129
878,114908556.07154902
2,1, 7,21, 0,11,30.00,40.00,SummerDesignDay
8,16.644108396469087
10,349902293.5668041
878,116347233.49312751
2,1, 7,21, 0,11,40.00,50.00,SummerDesignDay
8,16.749376736593655
10,353638869.8988598
878,117263059.76315494
2,1, 7,21, 0,11,50.00,60.00,SummerDesignDay
8,16.854232613237156
10,357371806.31515726
878,113973383.57295642
2,1, 7,21, 0,11, 0.00,60.00,SummerDesignDay
1112,23.99888112560565
1152,23.998225245449317
1192,23.99861897099875
1232,23.99983846108728
1272,23.996570663149386
1312,23.99921206387884
1352,23.999251006302733
1392,22.000608404011286
1432,23.99875589161284
1472,23.90566348862879
1512,23.796062159938939
1552,23.99989284721264
1592,24.3745142749799
1632,24.267128691643149
1672,24.033188289794695
1712,23.67280040764449
1752,24.22317981852574
1792,23.36257241855787
1832,23.804444879800469
1872,23.9074741973547
2,1, 7,21, 0,12, 0.00,10.00,SummerDesignDay
8,16.92390823520069
10,419347836.6601899
878,61813707.12717856
2,1, 7,21, 0,12,10.00,20.00,SummerDesignDay
8,16.99340178950456
10,421304948.589167
878,77983436.3573394
2,1, 7,21, 0,12,20.00,30.00,SummerDesignDay
8,17.06272006743463
10,423999807.0354747
878,77991144.9193557
2,1, 7,21, 0,12,30.00,40.00,SummerDesignDay
8,17.131853229172639
10,426711185.1278958
878,78009856.88925417
2,1, 7,21, 0,12,40.00,50.00,SummerDesignDay
8,17.200807172194087
10,429408304.82019367
878,78028377.94150597
2,1, 7,21, 0,12,50.00,60.00,SummerDesignDay
8,17.269582116758607
10,432079351.1994953
878,44151438.33815238
2,1, 7,21, 0,12, 0.00,60.00,SummerDesignDay
1112,23.998608401624585
1152,23.99814719572146
1192,23.998381126736644
1232,23.999813507399407
1272,23.99665214343224
1312,23.9989383842922
1352,23.999105075749197
1392,22.34747348188846
1432,23.998977422839
1472,23.906898233594803
1512,23.7981711556404
1552,23.999921147525727
1592,24.747705786534114
1632,24.31816637265328
1672,24.084808385172523
1712,23.745261694751567
1752,24.28824587004613
1792,23.196624403369268
1832,23.82898945837582
1872,23.42962002432981
2,1, 7,21, 0,13, 0.00,10.00,SummerDesignDay
8,17.32447360221357
10,437995510.7751488
878,75068926.82063201
2,1, 7,21, 0,13,10.00,20.00,SummerDesignDay
8,17.379251291230806
10,439770151.42739006
878,80649416.26785085
2,1, 7,21, 0,13,20.00,30.00,SummerDesignDay
8,17.433921312061729
10,444390828.9723393
878,80649415.6832732
2,1, 7,21, 0,13,30.00,40.00,SummerDesignDay
8,17.488473222557489
10,444775793.77242949
878,80648581.45251188
2,1, 7,21, 0,13,40.00,50.00,SummerDesignDay
8,17.542913447755134
10,447904231.9520825
878,80647752.50064941
2,1, 7,21, 0,13,50.00,60.00,SummerDesignDay
8,17.59724609886134
10,450114114.95886746
878,80646924.22058271
2,1, 7,21, 0,13, 0.00,60.00,SummerDesignDay
1112,23.9981966583311
1152,23.997780276997699
1192,23.99802303530399
1232,23.999773745456179
1272,23.996827769256368
1312,23.998945007304454
1352,23.99903496706493
1392,23.055131345628238
1432,23.999178205672725
1472,23.91479926773111
1512,23.814269424277915
1552,23.999962685297203
1592,25.0339227488315
1632,24.336491545493528
1672,24.139692810141115
1712,23.788303496084678
1752,24.320926854542578
1792,23.157223988748674
1832,23.91485404202335
1872,23.280473922203187
2,1, 7,21, 0,14, 0.00,10.00,SummerDesignDay
8,17.6311450462694
10,450837223.79968288
878,93514835.96891737
2,1, 7,21, 0,14,10.00,20.00,SummerDesignDay
8,17.665000449016245
10,452545977.4856638
878,106768067.73066326
2,1, 7,21, 0,14,20.00,30.00,SummerDesignDay
8,17.698812743128934
10,454056002.34218838
878,90567894.84014322
2,1, 7,21, 0,14,30.00,40.00,SummerDesignDay
8,17.732582050940107
10,455586829.4849888
878,83129849.80289611
2,1, 7,21, 0,14,40.00,50.00,SummerDesignDay
8,17.766307345121004
10,457189682.7209474
878,83156067.25930493
2,1, 7,21, 0,14,50.00,60.00,SummerDesignDay
8,17.79999023167558
10,458913393.7396605
878,83183022.91154579
2,1, 7,21, 0,14, 0.00,60.00,SummerDesignDay
1112,23.997481556068697
1152,23.996900761358295
1192,23.997260569074155
1232,23.99969271705184
1272,23.996412768561254
1312,23.998544604052367
1352,23.99870990351471
1392,23.212527580288666
1432,23.999162549890447
1472,23.90851184211724
1512,23.80003882439429
1552,23.99999845195688
1592,25.105359441265237
1632,24.33924973487741
1672,24.201427513995268
1712,23.821169767657528
1752,24.338927920520054
1792,23.198503013825307
1832,24.033711260599735
1872,23.245456736804589
2,1, 7,21, 0,15, 0.00,10.00,SummerDesignDay
8,17.79999023167558
10,456851873.2270913
878,88892384.84902519
2,1, 7,21, 0,15,10.00,20.00,SummerDesignDay
8,17.79999023167558
10,457676375.7266196
878,125554531.26755299
2,1, 7,21, 0,15,20.00,30.00,SummerDesignDay
8,17.79999023167558
10,458185529.76334419
878,85791853.91567366
2,1, 7,21, 0,15,30.00,40.00,SummerDesignDay
8,17.79999023167558
10,458637046.27196398
878,85856587.95774815
2,1, 7,21, 0,15,40.00,50.00,SummerDesignDay
8,17.79999023167558
10,458994402.1352697
878,103799099.51344857
2,1, 7,21, 0,15,50.00,60.00,SummerDesignDay
8,17.79999023167558
10,459246727.49868616
878,110887600.01167444
2,1, 7,21, 0,15, 0.00,60.00,SummerDesignDay
1112,23.99787510111943
1152,23.997301759360047
1192,23.99762681473374
1232,23.999597154909535
1272,23.996366334159295
1312,23.998591744093685
1352,23.998741211882949
1392,22.745385467061828
1432,23.999096927562208
1472,23.90866836727517
1512,23.801252923629535
1552,23.999973431847907
1592,24.821273974023144
1632,24.329734769639584
1672,24.248533621071166
1712,23.842116431387983
1752,24.34420667595366
1792,23.455747938194688
1832,24.130695979266436
1872,23.217206859155483
2,1, 7,21, 0,16, 0.00,10.00,SummerDesignDay
8,17.759562446305357
10,455231364.02415218
878,85729688.96480942
2,1, 7,21, 0,16,10.00,20.00,SummerDesignDay
8,17.71907809634183
10,453957727.6283281
878,85792441.97295083
2,1, 7,21, 0,16,20.00,30.00,SummerDesignDay
8,17.67853788661001
10,452415372.2588678
878,116269531.49258094
2,1, 7,21, 0,16,30.00,40.00,SummerDesignDay
8,17.63791796367351
10,450858364.9173826
878,98168135.67023759
2,1, 7,21, 0,16,40.00,50.00,SummerDesignDay
8,17.59724609886134
10,449222937.1246439
878,85738140.36457545
2,1, 7,21, 0,16,50.00,60.00,SummerDesignDay
8,17.55650676726033
10,447483011.1202728
878,85813788.14901179
2,1, 7,21, 0,16, 0.00,60.00,SummerDesignDay
1112,23.998684957994937
1152,23.99827011241449
1192,23.99849159649222
1232,23.999417890516374
1272,23.996328305899664
1312,23.99895369678482
1352,23.99892519666653
1392,22.132889050186326
1432,23.99874783859741
1472,23.908237458498719
1512,23.801864956409749
1552,23.99995029062067
1592,24.18446152334559
1632,24.299308657763686
1672,24.265336906254633
1712,23.838356645859077
1752,24.3299059466403
1792,23.83825463928657
1832,24.18060341443186
1872,23.149072627993136
2,1, 7,21, 0,17, 0.00,10.00,SummerDesignDay
8,17.50209486331892
10,446778973.71453306
878,106168681.3279038
2,1, 7,21, 0,17,10.00,20.00,SummerDesignDay
8,17.447570789624618
10,445979441.96605637
878,102216659.47965873
2,1, 7,21, 0,17,20.00,30.00,SummerDesignDay
8,17.392929544208135
10,441823983.4262454
878,82870630.80182995
2,1, 7,21, 0,17,30.00,40.00,SummerDesignDay
8,17.33818013976614
10,439540803.9285825
878,82889980.99726928
2,1, 7,21, 0,17,40.00,50.00,SummerDesignDay
8,17.283317298559309
10,439033139.0123526
878,83617922.51514031
2,1, 7,21, 0,17,50.00,60.00,SummerDesignDay
8,17.22833552437677
10,434867808.06647148
878,82935875.52765249
2,1, 7,21, 0,17, 0.00,60.00,SummerDesignDay
1112,23.999275896675216
1152,23.999018648961568
1192,23.999162659316338
1232,23.999153988715177
1272,23.99631480640842
1312,23.999161752883994
1352,23.999180723617227
1392,22.000246081519224
1432,23.998293417783484
1472,23.90776408828744
1512,23.801181151865916
1552,23.99991047398592
1592,23.341132225146436
1632,24.244751220028307
1672,24.245016545166754
1712,23.807158191848435
1752,24.29540110904118
1792,24.059868486311
1832,24.171546569477674
1872,23.031425544556368
2,1, 7,21, 0,18, 0.00,10.00,SummerDesignDay
8,17.159453019160176
10,428855571.5485882
878,107084811.57633797
2,1, 7,21, 0,18,10.00,20.00,SummerDesignDay
8,17.090391773337136
10,426711984.13503339
878,112976566.56036736
2,1, 7,21, 0,18,20.00,30.00,SummerDesignDay
8,17.021151077964786
10,423785435.78184166
878,88278983.90090862
2,1, 7,21, 0,18,30.00,40.00,SummerDesignDay
8,16.951729380464653
10,420821914.0760922
878,127960737.21069479
2,1, 7,21, 0,18,40.00,50.00,SummerDesignDay
8,16.882126503829249
10,417804678.7555885
878,92764372.62488032
2,1, 7,21, 0,18,50.00,60.00,SummerDesignDay
8,16.812341807494034
10,414763310.0709842
878,90317445.89060113
2,1, 7,21, 0,18, 0.00,60.00,SummerDesignDay
1112,23.99928748366027
1152,23.99912175167145
1192,23.999227695158085
1232,23.999068220432667
1272,23.996221940204707
1312,23.99923008370257
1352,23.999226665410477
1392,22.159337019542197
1432,23.99785924333321
1472,23.90738899264898
1512,23.79965831371254
1552,23.999865881537195
1592,22.47442447955761
1632,24.174336616917328
1672,24.19808158026841
1712,23.76005845927507
1752,24.248569268550069
1792,24.13655017238501
1832,24.114726930838584
1872,22.888442274272049
2,1, 7,21, 0,19, 0.00,10.00,SummerDesignDay
8,16.707321072823203
10,427208214.7750662
878,134423959.90919078
2,1, 7,21, 0,19,10.00,20.00,SummerDesignDay
8,16.601881826644556
10,423607785.6935487
878,92701899.636444
2,1, 7,21, 0,19,20.00,30.00,SummerDesignDay
8,16.496030555252849
10,419638782.48436787
878,139441253.43629203
2,1, 7,21, 0,19,30.00,40.00,SummerDesignDay
8,16.389760181474104
10,415671427.5031128
878,95120314.1267573
2,1, 7,21, 0,19,40.00,50.00,SummerDesignDay
8,16.283067654262039
10,411653115.116838
878,142007399.02994979
2,1, 7,21, 0,19,50.00,60.00,SummerDesignDay
8,16.17595057957811
10,407600066.6759443
878,97396437.99819726
2,1, 7,21, 0,19, 0.00,60.00,SummerDesignDay
1112,23.9990599165555
1152,23.998852415699195
1192,23.99900745627968
1232,23.999175731122564
1272,23.99603927839207
1312,23.999003819719268
1352,23.999006225326089
1392,22.72923864059644
1432,23.99689438241045
1472,23.906731527174988
1512,23.79769008398579
1552,23.999812659829244
1592,22.004603436011167
1632,24.09867183478759
1672,24.14157621221744
1712,23.713630335718095
1752,24.200021491490259
1792,24.061994580491065
1832,24.03633856804962
1872,22.731449550340505
2,1, 7,21, 0,20, 0.00,10.00,SummerDesignDay
8,16.097123145563505
10,421642448.1518532
878,125255289.73468115
2,1, 7,21, 0,20,10.00,20.00,SummerDesignDay
8,16.018070242471564
10,418236941.4816637
878,104643043.58724478
2,1, 7,21, 0,20,20.00,30.00,SummerDesignDay
8,15.938779752340516
10,415337429.889415
878,94506526.9001454
2,1, 7,21, 0,20,30.00,40.00,SummerDesignDay
8,15.85926152575189
10,412289359.080943
878,95390826.42413235
2,1, 7,21, 0,20,40.00,50.00,SummerDesignDay
8,15.779503718563929
10,409126427.8342098
878,129085349.86158775
2,1, 7,21, 0,20,50.00,60.00,SummerDesignDay
8,15.699515709672767
10,405837351.37057617
878,106672213.39559378
2,1, 7,21, 0,20, 0.00,60.00,SummerDesignDay
1112,23.99868332331232
1152,23.998453067835766
1192,23.998566756653493
1232,23.999501022049008
1272,23.995880285804927
1312,23.998606866057359
1352,23.998634318869905
1392,23.394384501484713
1432,23.996500373511368
1472,23.906547951299058
1512,23.795258989957078
1552,23.999779886297774
1592,22.00001569349973
1632,24.028738384850269
1672,24.09121411076788
1712,23.682231196602559
1752,24.161844993563589
1792,23.81705716551511
1832,24.01380888743563
1872,22.586232031916056
2,1, 7,21, 0,21, 0.00,10.00,SummerDesignDay
8,15.63389147320404
10,398965270.0145473
878,114963178.67441537
2,1, 7,21, 0,21,10.00,20.00,SummerDesignDay
8,15.56810827419793
10,396622452.53354129
878,145677501.25138826
2,1, 7,21, 0,21,20.00,30.00,SummerDesignDay
8,15.502170882753524
10,393361991.6997553
878,142134182.88679243
2,1, 7,21, 0,21,30.00,40.00,SummerDesignDay
8,15.436068032613852
10,390051364.02204337
878,122038530.33327237
2,1, 7,21, 0,21,40.00,50.00,SummerDesignDay
8,15.369804371206009
10,386902217.618522
878,156570521.3766445
2,1, 7,21, 0,21,50.00,60.00,SummerDesignDay
8,15.303384603594449
10,383538927.14110597
878,110584306.14881034
2,1, 7,21, 0,21, 0.00,60.00,SummerDesignDay
1112,23.998494596760179
1152,23.998238122849825
1192,23.998412420817635
1232,23.999769185546769
1272,23.9960194317277
1312,23.99829270885989
1352,23.99835674157138
1392,23.599845632103685
1432,23.996842472782676
1472,23.90661011093745
1512,23.791172423189143
1552,23.999788856673658
1592,22.000071389555246
1632,23.976584311472057
1672,24.059831942838558
1712,23.675992427035799
1752,24.145011517124769
1792,23.425974350176366