Program Version,EnergyPlus, Version 8.9.0-eba93e8e1b, YMD=2019.03.26 18:13
1,5,Environment Title[],Latitude[deg],Longitude[deg],Time Zone[],Elevation[m]
2,8,Day of Simulation[],Month[],Day of Month[],DST Indicator[1=yes 0=no],Hour[],StartMinute[],EndMinute[],DayType
3,5,Cumulative Day of Simulation[],Month[],Day of Month[],DST Indicator[1=yes 0=no],DayType  ! When Daily Report Variables Requested
4,2,Cumulative Days of Simulation[],Month[]  ! When Monthly Report Variables Requested
5,1,Cumulative Days of Simulation[] ! When Run Period Report Variables Requested
6,1,Calendar Year of Simulation[] ! When Annual Report Variables Requested
7,9,Environment,Site Outdoor Air Drybulb Temperature [C] !Monthly [Value,Min,Day,Hour,Minute,Max,Day,Hour,Minute]
8,1,Environment,Site Outdoor Air Wetbulb Temperature [C] !TimeStep
914,1,ATRIUM (HEIGHT < 6M)-SCH-A-SPACE FUNCTION ZN,Zone Air Temperature [C] !Hourly
915,7,ATRIUM (HEIGHT < 6M)-SCH-A-SPACE FUNCTION ZN,Zone Air Relative Humidity [%] !Daily [Value,Min,Hour,Minute,Max,Hour,Minute]
954,1,ATRIUM (HEIGHT < 6M)-SCH-B-SPACE FUNCTION ZN,Zone Air Temperature [C] !Hourly
955,7,ATRIUM (HEIGHT < 6M)-SCH-B-SPACE FUNCTION ZN,Zone Air Relative Humidity [%] !Daily [Value,Min,Hour,Minute,Max,Hour,Minute]
994,1,ATRIUM (HEIGHT < 6M)-SCH-C-SPACE FUNCTION ZN,Zone Air Temperature [C] !Hourly
995,7,ATRIUM (HEIGHT < 6M)-SCH-C-SPACE FUNCTION ZN,Zone Air Relative Humidity [%] !Daily [Value,Min,Hour,Minute,Max,Hour,Minute]
1034,1,ATRIUM (HEIGHT < 6M)-SCH-D-SPACE FUNCTION ZN,Zone Air Temperature [C] !Hourly
1035,7,ATRIUM (HEIGHT < 6M)-SCH-D-SPACE FUNCTION ZN,Zone Air Relative Humidity [%] !Daily [Value,Min,Hour,Minute,Max,Hour,Minute]
1074,1,ATRIUM (HEIGHT < 6M)-SCH-E-SPACE FUNCTION ZN,Zone Air Temperature [C] !Hourly
1075,7,ATRIUM (HEIGHT < 6M)-SCH-E-SPACE FUNCTION ZN,Zone Air Relative Humidity [%] !Daily [Value,Min,Hour,Minute,Max,Hour,Minute]
1114,1,ATRIUM (HEIGHT < 6M)-SCH-F-SPACE FUNCTION ZN,Zone Air Temperature [C] !Hourly
1115,7,ATRIUM (HEIGHT < 6M)-SCH-F-SPACE FUNCTION ZN,Zone Air Relative Humidity [%] !Daily [Value,Min,Hour,Minute,Max,Hour,Minute]
1154,1,ATRIUM (HEIGHT < 6M)-SCH-G-SPACE FUNCTION ZN,Zone Air Temperature [C] !Hourly
1155,7,ATRIUM (HEIGHT < 6M)-SCH-G-SPACE FUNCTION ZN,Zone Air Relative Humidity [%] !Daily [Value,Min,Hour,Minute,Max,Hour,Minute]
1194,1,WHOLEBUILDING-OFFICE ZN,Zone Air Temperature [C] !Hourly
1195,7,WHOLEBUILDING-OFFICE ZN,Zone Air Relative Humidity [%] !Daily [Value,Min,Hour,Minute,Max,Hour,Minute]
1234,1,WHOLEBUILDING-PENITENTIARY ZN,Zone Air Temperature [C] !Hourly
1235,7,WHOLEBUILDING-PENITENTIARY ZN,Zone Air Relative Humidity [%] !Daily [Value,Min,Hour,Minute,Max,Hour,Minute]
1274,1,WHOLEBUILDING-PERFORMING ARTS THEATRE ZN,Zone Air Temperature [C] !Hourly
1275,7,WHOLEBUILDING-PERFORMING ARTS THEATRE ZN,Zone Air Relative Humidity [%] !Daily [Value,Min,Hour,Minute,Max,Hour,Minute]
1314,1,WHOLEBUILDING-POLICE STATION ZN,Zone Air Temperature [C] !Hourly
1315,7,WHOLEBUILDING-POLICE STATION ZN,Zone Air Relative Humidity [%] !Daily [Value,Min,Hour,Minute,Max,Hour,Minute]
1354,1,WHOLEBUILDING-POST OFFICE ZN,Zone Air Temperature [C] !Hourly
1355,7,WHOLEBUILDING-POST OFFICE ZN,Zone Air Relative Humidity [%] !Daily [Value,Min,Hour,Minute,Max,Hour,Minute]
1394,1,WHOLEBUILDING-RETAIL AREA ZN,Zone Air Temperature [C] !Hourly
1395,7,WHOLEBUILDING-RETAIL AREA ZN,Zone Air Relative Humidity [%] !Daily [Value,Min,Hour,Minute,Max,Hour,Minute]
1434,1,WHOLEBUILDING-SCHOOL/UNIVERSITY ZN,Zone Air Temperature [C] !Hourly
1435,7,WHOLEBUILDING-SCHOOL/UNIVERSITY ZN,Zone Air Relative Humidity [%] !Daily [Value,Min,Hour,Minute,Max,Hour,Minute]
1474,1,WHOLEBUILDING-SPORTS ARENA ZN,Zone Air Temperature [C] !Hourly
1475,7,WHOLEBUILDING-SPORTS ARENA ZN,Zone Air Relative Humidity [%] !Daily [Value,Min,Hour,Minute,Max,Hour,Minute]
1514,1,WHOLEBUILDING-STORAGE GARAGE ZN,Zone Air Temperature [C] !Hourly
1515,7,WHOLEBUILDING-STORAGE GARAGE ZN,Zone Air Relative Humidity [%] !Daily [Value,Min,Hour,Minute,Max,Hour,Minute]
1554,1,WHOLEBUILDING-TOWN HALL ZN,Zone Air Temperature [C] !Hourly
1555,7,WHOLEBUILDING-TOWN HALL ZN,Zone Air Relative Humidity [%] !Daily [Value,Min,Hour,Minute,Max,Hour,Minute]
1594,1,WHOLEBUILDING-TRANSPORTATION FACILITY ZN,Zone Air Temperature [C] !Hourly
1595,7,WHOLEBUILDING-TRANSPORTATION FACILITY ZN,Zone Air Relative Humidity [%] !Daily [Value,Min,Hour,Minute,Max,Hour,Minute]
1634,1,WHOLEBUILDING-WAREHOUSE ZN,Zone Air Temperature [C] !Hourly
1635,7,WHOLEBUILDING-WAREHOUSE ZN,Zone Air Relative Humidity [%] !Daily [Value,Min,Hour,Minute,Max,Hour,Minute]
1674,1,WHOLEBUILDING-WORKSHOP ZN,Zone Air Temperature [C] !Hourly
1675,7,WHOLEBUILDING-WORKSHOP ZN,Zone Air Relative Humidity [%] !Daily [Value,Min,Hour,Minute,Max,Hour,Minute]
10,1,Electricity:Facility [J] !TimeStep
1825,1,DistrictCooling:Facility [J] !TimeStep
1788,1,DistrictHeating:Facility [J] !TimeStep
End of Data Dictionary
1,FORT MCMURRAY AP ANN CLG .4% CONDNS DB=>MWB,  56.65,-111.22,  -7.00, 369.10
2,1, 7,21, 0, 1, 0.00,10.00,SummerDesignDay
8,14.218136923962174
10,70871796.98677859
1788,0.0
1825,79594639.15047156
2,1, 7,21, 0, 1,10.00,20.00,SummerDesignDay
8,14.171982153293495
10,70871796.98677859
1788,0.0
1825,78315435.53158833
2,1, 7,21, 0, 1,20.00,30.00,SummerDesignDay
8,14.125744780286427
10,70871796.98677859
1788,0.0
1825,77105026.85231447
2,1, 7,21, 0, 1,30.00,40.00,SummerDesignDay
8,14.079436086331978
10,70871796.98677859
1788,0.0
1825,75906227.31091769
2,1, 7,21, 0, 1,40.00,50.00,SummerDesignDay
8,14.033050387896898
10,70871796.98677859
1788,0.0
1825,74721897.70952237
2,1, 7,21, 0, 1,50.00,60.00,SummerDesignDay
8,13.986581233564835
10,70871796.98677859
1788,0.0
1825,73548836.57823813
2,1, 7,21, 0, 1, 0.00,60.00,SummerDesignDay
914,23.790313496934286
954,24.00000000000001
994,23.924007694287395
1034,24.978234079010137
1074,24.195975933030544
1114,24.000000000000005
1154,24.000000000000019
1194,24.24485624037158
1234,24.000000000000005
1274,23.504670164494454
1314,24.00000000000003
1354,24.594544723287368
1394,23.76058407537776
1434,24.5851163136868
1474,24.000000000000019
1514,21.729742358416038
1554,25.732200995459235
1594,24.00000000000001
1634,24.296545255288796
1674,23.74385589896454
2,1, 7,21, 0, 2, 0.00,10.00,SummerDesignDay
8,13.95555882260429
10,63487764.44454995
1788,0.0
1825,54011764.26489638
2,1, 7,21, 0, 2,10.00,20.00,SummerDesignDay
8,13.924507755336454
10,63487764.44454995
1788,0.0
1825,53318823.09466447
2,1, 7,21, 0, 2,20.00,30.00,SummerDesignDay
8,13.893416042989206
10,63487764.44454995
1788,0.0
1825,52658313.81785321
2,1, 7,21, 0, 2,30.00,40.00,SummerDesignDay
8,13.862289589689029
10,63487764.44454995
1788,0.0
1825,52000174.552317637
2,1, 7,21, 0, 2,40.00,50.00,SummerDesignDay
8,13.831134407608739
10,63487764.44454995
1788,0.0
1825,51350437.86974409
2,1, 7,21, 0, 2,50.00,60.00,SummerDesignDay
8,13.799938415548118
10,63487764.44454995
1788,0.0
1825,50702072.72769238
2,1, 7,21, 0, 2, 0.00,60.00,SummerDesignDay
914,23.666297503308205
954,24.24797583233875
994,23.807279002734103
1034,24.89007829201931
1074,24.0534280863647
1114,23.999999999999998
1154,24.0
1194,23.908492150339936
1234,24.0
1274,23.126321541840708
1314,24.000000000000026
1354,24.35819717460419
1394,23.45693242809622
1434,24.343835645093539
1474,24.924712203569034
1514,21.33086534466317
1554,25.582102281949405
1594,24.00000000000001
1634,24.177984718265447
1674,23.523385751219164
2,1, 7,21, 0, 3, 0.00,10.00,SummerDesignDay
8,13.776521671948676
10,57023416.01399434
1788,0.0
1825,50139443.67763943
2,1, 7,21, 0, 3,10.00,20.00,SummerDesignDay
8,13.753085235778466
10,57023416.01399434
1788,0.0
1825,49577078.6645133
2,1, 7,21, 0, 3,20.00,30.00,SummerDesignDay
8,13.729636002354969
10,57023416.01399434
1788,0.0
1825,49012727.995781328
2,1, 7,21, 0, 3,30.00,40.00,SummerDesignDay
8,13.706147375533054
10,57023416.01399434
1788,0.0
1825,48423400.245913539
2,1, 7,21, 0, 3,40.00,50.00,SummerDesignDay
8,13.682651961920304
10,57023416.01399434
1788,0.0
1825,47816772.33883004
2,1, 7,21, 0, 3,50.00,60.00,SummerDesignDay
8,13.659136670643687
10,57023416.01399434
1788,0.0
1825,47207924.74738592
2,1, 7,21, 0, 3, 0.00,60.00,SummerDesignDay
914,23.567198563786137
954,24.03567093721944
994,23.704214332454418
1034,24.777874438249229
1074,23.919764441731159
1114,24.000000000000005
1154,24.000000000000019
1194,23.619814872875293
1234,24.000000000000015
1274,22.79873367495513
1314,24.00000000000003
1354,24.147560885842326
1394,23.18920545850466
1434,24.109016651932636
1474,24.662828910108585
1514,21.01800249802841
1554,25.39727216694116
1594,24.00000000000001
1634,24.0782513566049
1674,23.341813074111987
2,1, 7,21, 0, 4, 0.00,10.00,SummerDesignDay
8,13.63560137410855
10,56742964.12874112
1788,0.0
1825,46392630.86657508
2,1, 7,21, 0, 4,10.00,20.00,SummerDesignDay
8,13.612040802606578
10,56742964.12874112
1788,0.0
1825,45772338.28453298
2,1, 7,21, 0, 4,20.00,30.00,SummerDesignDay
8,13.58846620506876
10,56742964.12874112
1788,0.0
1825,45160264.39355196
2,1, 7,21, 0, 4,30.00,40.00,SummerDesignDay
8,13.56487178447336
10,56742964.12874112
1788,0.0
1825,44517531.27155377
2,1, 7,21, 0, 4,40.00,50.00,SummerDesignDay
8,13.541257354069103
10,56742964.12874112
1788,0.0
1825,43875074.59870973
2,1, 7,21, 0, 4,50.00,60.00,SummerDesignDay
8,13.517617463812285
10,56742964.12874112
1788,0.0
1825,43233110.2948162
2,1, 7,21, 0, 4, 0.00,60.00,SummerDesignDay
914,23.482726427514618
954,23.817262593425484
994,23.612484068552033
1034,24.67204734117222
1074,23.79591390777173
1114,24.00000000000001
1154,24.00000000000001
1194,23.370276134848298
1234,23.99999999999999
1274,22.518472679317527
1314,24.00000000000003
1354,23.95305214616299
1394,22.960151453033416
1434,23.889587751023286
1474,24.33451650970837
1514,20.742819012305377
1554,25.22514790738708
1594,24.000000000000005
1634,23.992372070712098
1674,23.18289676605316
2,1, 7,21, 0, 5, 0.00,10.00,SummerDesignDay
8,13.50185415824011
10,56742964.12874112
1788,0.0
1825,42688764.138661507
2,1, 7,21, 0, 5,10.00,20.00,SummerDesignDay
8,13.486076034032447
10,56742964.12874112
1788,0.0
1825,44014031.078239869
2,1, 7,21, 0, 5,20.00,30.00,SummerDesignDay
8,13.470289340350983
10,56742964.12874112
1788,0.0
1825,45188909.13463722
2,1, 7,21, 0, 5,30.00,40.00,SummerDesignDay
8,13.454493322631063
10,56742964.12874112
1788,0.0
1825,46408454.17856732
2,1, 7,21, 0, 5,40.00,50.00,SummerDesignDay
8,13.438688835118548
10,56742964.12874112
1788,0.0
1825,47683540.63697363
2,1, 7,21, 0, 5,50.00,60.00,SummerDesignDay
8,13.422888173889437
10,56742964.12874112
1788,0.0
1825,48761961.55044101
2,1, 7,21, 0, 5, 0.00,60.00,SummerDesignDay
914,23.402273406145839
954,23.72115893010619
994,23.52439427730459
1034,24.576277497795009
1074,23.74165078158821
1114,24.000000000000005
1154,24.000000000000015
1194,23.421458679523597
1234,23.999999999999998
1274,22.329560040962425
1314,24.0
1354,23.768306345702955
1394,22.803367941880766
1434,23.68855081769061
1474,24.244729019395974
1514,20.499319152643268
1554,25.069117555727119
1594,23.999999999999987
1634,23.91272113909635
1674,23.03538361318867
2,1, 7,21, 0, 6, 0.00,10.00,SummerDesignDay
8,13.438688835118548
10,56742964.12874112
1788,0.0
1825,50003945.801284309
2,1, 7,21, 0, 6,10.00,20.00,SummerDesignDay
8,13.454493322631063
10,56742964.12874112
1788,0.0
1825,51106619.915742527
2,1, 7,21, 0, 6,20.00,30.00,SummerDesignDay
8,13.470289340350983
10,56742964.12874112
1788,0.0
1825,52132055.05289784
2,1, 7,21, 0, 6,30.00,40.00,SummerDesignDay
8,13.486076034032447
10,56742964.12874112
1788,0.0
1825,53111622.434793848
2,1, 7,21, 0, 6,40.00,50.00,SummerDesignDay
8,13.50185415824011
10,56742964.12874112
1788,0.0
1825,54052893.295738529
2,1, 7,21, 0, 6,50.00,60.00,SummerDesignDay
8,13.517617463812285
10,56742964.12874112
1788,0.0
1825,55006009.06208989
2,1, 7,21, 0, 6, 0.00,60.00,SummerDesignDay
914,23.35208900067808
954,23.661355884127635
994,23.461043976956888
1034,24.5284467729567
1074,23.784623716179938
1114,24.00000000000001
1154,24.000000000000019
1194,24.616193741020454
1234,24.000000000000019
1274,22.45469455887806
1314,24.00000000000003
1354,23.64374250157199
1394,22.916594653812557
1434,23.568039727407628
1474,24.614017775143329
1514,20.416716482692139
1554,24.972863958160784
1594,24.000000000000019
1634,23.870788478930636
1674,22.95844693968999
2,1, 7,21, 0, 7, 0.00,10.00,SummerDesignDay
8,13.572736920571789
10,57262002.69005246
1788,0.0
1825,81894987.53658487
2,1, 7,21, 0, 7,10.00,20.00,SummerDesignDay
8,13.627748229152554
10,57262002.69005246
1788,0.0
1825,58333542.14251302
2,1, 7,21, 0, 7,20.00,30.00,SummerDesignDay
8,13.682651961920304
10,57262002.69005246
1788,0.0
1825,73444358.90099362
2,1, 7,21, 0, 7,30.00,40.00,SummerDesignDay
8,13.737448093244995
10,57262002.69005246
1788,0.0
1825,79728156.80264792
2,1, 7,21, 0, 7,40.00,50.00,SummerDesignDay
8,13.792137011831216
10,57262002.69005246
1788,0.0
1825,79478712.24301896
2,1, 7,21, 0, 7,50.00,60.00,SummerDesignDay
8,13.846719282840333
10,57262002.69005246
1788,0.0
1825,82982557.54907102
2,1, 7,21, 0, 7, 0.00,60.00,SummerDesignDay
914,23.36661192653051
954,23.66298391690874
994,23.456980580917546
1034,24.54643183232216
1074,23.72507023279519
1114,24.000000000000005
1154,24.0
1194,23.931714616855389
1234,24.00000000000001
1274,22.91590108515057
1314,23.999999999999976
1354,23.64783346741869
1394,23.33315246465396
1434,23.583427821556758
1474,25.138458881109775
1514,20.62859536830432
1554,24.970832959047859
1594,24.000000000000026
1634,23.913685568725826
1674,23.019023777774096
2,1, 7,21, 0, 8, 0.00,10.00,SummerDesignDay
8,13.978831900527043
10,76832562.47088699
1788,0.0
1825,119936031.12699937
2,1, 7,21, 0, 8,10.00,20.00,SummerDesignDay
8,14.110321014287419
10,76832562.47088699
1788,0.0
1825,95266441.86839095
2,1, 7,21, 0, 8,20.00,30.00,SummerDesignDay
8,14.241191509616986
10,76832562.47088699
1788,0.0
1825,110049335.21803713
2,1, 7,21, 0, 8,30.00,40.00,SummerDesignDay
8,14.371447531304272
10,76832562.47088699
1788,0.0
1825,132394746.83976916
2,1, 7,21, 0, 8,40.00,50.00,SummerDesignDay
8,14.501093766564925
10,76832562.47088699
1788,0.0
1825,139716586.55988858
2,1, 7,21, 0, 8,50.00,60.00,SummerDesignDay
8,14.630134792273804
10,76832562.47088699
1788,0.0
1825,147748687.9928014
2,1, 7,21, 0, 8, 0.00,60.00,SummerDesignDay
914,23.601834041026068
954,23.748479215308025
994,23.537690551948619
1034,23.899979142075968
1074,23.78487154446567
1114,24.00000000000001
1154,24.00000000000001
1194,23.99999999262521
1234,24.000000000000015
1274,23.738917869291034
1314,24.000000000000058
1354,23.951317351318818
1394,23.93064342170457
1434,23.78815645522924
1474,25.72307750074255
1514,21.28604747582715
1554,23.85591828599914
1594,23.999999999999998
1634,23.998905567985095
1674,23.559852001233975
2,1, 7,21, 0, 9, 0.00,10.00,SummerDesignDay
8,14.773641492809972
10,155158617.51209254
1788,0.0
1825,251321454.20620156
2,1, 7,21, 0, 9,10.00,20.00,SummerDesignDay
8,14.91640948124148
10,155158617.51209254
1788,0.0
1825,246178478.97434924
2,1, 7,21, 0, 9,20.00,30.00,SummerDesignDay
8,15.05843890714102
10,155158617.51209254
1788,0.0
1825,274176341.0038329
2,1, 7,21, 0, 9,30.00,40.00,SummerDesignDay
8,15.199735893563798
10,155158617.51209254
1788,0.0
1825,276234093.38672217
2,1, 7,21, 0, 9,40.00,50.00,SummerDesignDay
8,15.340306256439395
10,155158617.51209254
1788,0.0
1825,290296943.8277082
2,1, 7,21, 0, 9,50.00,60.00,SummerDesignDay
8,15.48015101768072
10,155158617.51209254
1788,0.0
1825,300585126.53522786
2,1, 7,21, 0, 9, 0.00,60.00,SummerDesignDay
914,23.9920648567972
954,23.93411156429435
994,23.906570764409268
1034,23.999999999994829
1074,23.9940046808872
1114,24.0
1154,24.00000000000001
1194,24.000000000000044
1234,24.000000000000015
1274,23.99999994119519
1314,24.000000000000005
1354,23.999999999938824
1394,23.99999999998739
1434,23.999991202807679
1474,23.94262662822338
1514,22.428047630961374
1554,23.999999999927174
1594,24.000000000000019
1634,24.0
1674,23.99926522101283
2,1, 7,21, 0,10, 0.00,10.00,SummerDesignDay
8,15.60467292907716
10,212498348.4400053
1788,0.0
1825,365711362.69509896
2,1, 7,21, 0,10,10.00,20.00,SummerDesignDay
8,15.72862731650033
10,212498348.4400053
1788,0.0
1825,379660540.801816
2,1, 7,21, 0,10,20.00,30.00,SummerDesignDay
8,15.852017409284228
10,212498348.4400053
1788,0.0
1825,391051702.4294203
2,1, 7,21, 0,10,30.00,40.00,SummerDesignDay
8,15.974848118364367
10,212498348.4400053
1788,0.0
1825,402202469.5249439
2,1, 7,21, 0,10,40.00,50.00,SummerDesignDay
8,16.097123145563505
10,212498348.4400053
1788,0.0
1825,412799114.6220355
2,1, 7,21, 0,10,50.00,60.00,SummerDesignDay
8,16.218846351168599
10,212498348.4400053
1788,0.0
1825,422679769.1883803
2,1, 7,21, 0,10, 0.00,60.00,SummerDesignDay
914,23.999999999999927
954,23.999999939100076
994,23.99999999633773
1034,24.00000000000003
1074,23.99999999999999
1114,24.000000000000005
1154,24.00000000000001
1194,24.0
1234,24.00000000000003
1274,24.000000000000019
1314,24.000000000000019
1354,24.000000000000019
1394,24.000000000000019
1434,24.000000000000033
1474,23.99999999977754
1514,23.76255986683552
1554,24.000000000000026
1594,24.000000000000047
1634,24.00000000000001
1674,23.99999999999747
2,1, 7,21, 0,11, 0.00,10.00,SummerDesignDay
8,16.325793027093189
10,216531813.75600655
1788,0.0
1825,441833740.4893737
2,1, 7,21, 0,11,10.00,20.00,SummerDesignDay
8,16.432322158488288
10,216531813.75600655
1788,0.0
1825,451320121.7132317
2,1, 7,21, 0,11,20.00,30.00,SummerDesignDay
8,16.538424180249178
10,216531813.75600655
1788,0.0
1825,460380522.6191925
2,1, 7,21, 0,11,30.00,40.00,SummerDesignDay
8,16.644108396469087
10,216531813.75600655
1788,0.0
1825,469093529.9020717
2,1, 7,21, 0,11,40.00,50.00,SummerDesignDay
8,16.749376736593655
10,216531813.75600655
1788,0.0
1825,477425152.9515195
2,1, 7,21, 0,11,50.00,60.00,SummerDesignDay
8,16.854232613237156
10,216531813.75600655
1788,0.0
1825,485468895.01250937
2,1, 7,21, 0,11, 0.00,60.00,SummerDesignDay
914,24.000000000000026
954,24.00000000000001
994,24.00000000000001
1034,24.00000000000001
1074,24.000000000000015
1114,24.000000000000005
1154,24.000000000000019
1194,24.000000000000033
1234,24.000000000000047
1274,23.999999999999984
1314,24.000000000000047
1354,24.000000000000019
1394,23.999999999999987
1434,23.999999999999976
1474,24.00000000000001
1514,25.08085154920248
1554,24.00000000000001
1594,24.000000000000015
1634,24.0
1674,24.000000000000019
2,1, 7,21, 0,12, 0.00,10.00,SummerDesignDay
8,16.92390823520069
10,219483536.08603109
1788,0.0
1825,497091704.9886168
2,1, 7,21, 0,12,10.00,20.00,SummerDesignDay
8,16.99340178950456
10,219483536.08603109
1788,0.0
1825,503522941.7310996
2,1, 7,21, 0,12,20.00,30.00,SummerDesignDay
8,17.06272006743463
10,219483536.08603109
1788,0.0
1825,509813134.8036379
2,1, 7,21, 0,12,30.00,40.00,SummerDesignDay
8,17.131853229172639
10,219483536.08603109
1788,0.0
1825,516045449.99740728
2,1, 7,21, 0,12,40.00,50.00,SummerDesignDay
8,17.200807172194087
10,219483536.08603109
1788,0.0
1825,522198919.5657887
2,1, 7,21, 0,12,50.00,60.00,SummerDesignDay
8,17.269582116758607
10,219483536.08603109
1788,0.0
1825,528177928.77356
2,1, 7,21, 0,12, 0.00,60.00,SummerDesignDay
914,24.00000000000001
954,24.000000000000005
994,24.000000000000019
1034,24.00000000000003
1074,24.000000000000019
1114,24.0
1154,24.000000000000015
1194,24.000000000000055
1234,24.000000000000044
1274,23.99999999999994
1314,24.000000000000115
1354,24.000000000000026
1394,24.000000000000044
1434,24.0
1474,23.99999999999999
1514,26.21973575338887
1554,23.99999999999999
1594,24.000000000000026
1634,23.99999999999999
1674,24.000000000000026
2,1, 7,21, 0,13, 0.00,10.00,SummerDesignDay
8,17.32447360221357
10,219203084.2007779
1788,0.0
1825,533831340.2685831
2,1, 7,21, 0,13,10.00,20.00,SummerDesignDay
8,17.379251291230806
10,219203084.2007779
1788,0.0
1825,539008749.0553308
2,1, 7,21, 0,13,20.00,30.00,SummerDesignDay
8,17.433921312061729
10,219203084.2007779
1788,0.0
1825,543915157.8441653
2,1, 7,21, 0,13,30.00,40.00,SummerDesignDay
8,17.488473222557489
10,219203084.2007779
1788,0.0
1825,548665932.4019742
2,1, 7,21, 0,13,40.00,50.00,SummerDesignDay
8,17.542913447755134
10,219203084.2007779
1788,0.0
1825,553085115.4640917
2,1, 7,21, 0,13,50.00,60.00,SummerDesignDay
8,17.59724609886134
10,219203084.2007779
1788,0.0
1825,557114941.5403668
2,1, 7,21, 0,13, 0.00,60.00,SummerDesignDay
914,24.000000000000019
954,24.00000000000001
994,24.000000000000005
1034,23.999999999999976
1074,24.00000000000001
1114,24.00000000000001
1154,24.0
1194,24.0
1234,24.000000000000055
1274,24.0
1314,24.000000000000097
1354,24.000000000000019
1394,24.00000000000004
1434,24.000000000000015
1474,24.000000000000044
1514,26.97532671114511
1554,24.000000000000019
1594,24.000000000000019
1634,24.000000000000026
1674,24.0
2,1, 7,21, 0,14, 0.00,10.00,SummerDesignDay
8,17.6311450462694
10,219203084.2007779
1788,0.0
1825,558286081.4561925
2,1, 7,21, 0,14,10.00,20.00,SummerDesignDay
8,17.665000449016245
10,219203084.2007779
1788,0.0
1825,560770530.5873638
2,1, 7,21, 0,14,20.00,30.00,SummerDesignDay
8,17.698812743128934
10,219203084.2007779
1788,0.0
1825,563204249.1922736
2,1, 7,21, 0,14,30.00,40.00,SummerDesignDay
8,17.732582050940107
10,219203084.2007779
1788,0.0
1825,565619193.8641502
2,1, 7,21, 0,14,40.00,50.00,SummerDesignDay
8,17.766307345121004
10,219203084.2007779
1788,0.0
1825,568068779.3182402
2,1, 7,21, 0,14,50.00,60.00,SummerDesignDay
8,17.79999023167558
10,219203084.2007779
1788,0.0
1825,570540308.7737391
2,1, 7,21, 0,14, 0.00,60.00,SummerDesignDay
914,24.0
954,24.000000000000026
994,24.000000000000005
1034,24.000000000000015
1074,24.00000000000001
1114,24.0
1154,24.000000000000015
1194,24.00000000000003
1234,23.999999999999987
1274,24.000000000000005
1314,23.999999999999984
1354,24.000000000000033
1394,24.00000000000008
1434,24.000000000000033
1474,24.000000000000015
1514,27.539616580659759
1554,23.999999999999984
1594,24.00000000000004
1634,24.000000000000015
1674,24.00000000000003
2,1, 7,21, 0,15, 0.00,10.00,SummerDesignDay
8,17.79999023167558
10,219203084.2007779
1788,0.0
1825,570303836.6545438
2,1, 7,21, 0,15,10.00,20.00,SummerDesignDay
8,17.79999023167558
10,219203084.2007779
1788,0.0
1825,571243930.3949808
2,1, 7,21, 0,15,20.00,30.00,SummerDesignDay
8,17.79999023167558
10,219203084.2007779
1788,0.0
1825,572093664.5810249
2,1, 7,21, 0,15,30.00,40.00,SummerDesignDay
8,17.79999023167558
10,219203084.2007779
1788,0.0
1825,572727445.9532209
2,1, 7,21, 0,15,40.00,50.00,SummerDesignDay
8,17.79999023167558
10,219203084.2007779
1788,0.0
1825,573050584.4352744
2,1, 7,21, 0,15,50.00,60.00,SummerDesignDay
8,17.79999023167558
10,219203084.2007779
1788,0.0
1825,573014227.3583796
2,1, 7,21, 0,15, 0.00,60.00,SummerDesignDay
914,24.000000000000005
954,24.000000000000005
994,24.00000000000001
1034,24.0
1074,24.000000000000015
1114,24.0
1154,24.00000000000001
1194,24.000000000000019
1234,24.000000000000033
1274,24.0
1314,24.000000000000076
1354,24.000000000000005
1394,24.000000000000026
1434,24.000000000000033
1474,24.000000000000015
1514,27.83503411101266
1554,24.00000000000003
1594,24.00000000000003
1634,24.0
1674,24.000000000000033
2,1, 7,21, 0,16, 0.00,10.00,SummerDesignDay
8,17.759562446305357
10,219203084.2007779
1788,0.0
1825,569351798.5164193
2,1, 7,21, 0,16,10.00,20.00,SummerDesignDay
8,17.71907809634183
10,219203084.2007779
1788,0.0
1825,566616453.1941158
2,1, 7,21, 0,16,20.00,30.00,SummerDesignDay
8,17.67853788661001
10,219203084.2007779
1788,0.0
1825,563391337.5928109
2,1, 7,21, 0,16,30.00,40.00,SummerDesignDay
8,17.63791796367351
10,219203084.2007779
1788,0.0
1825,559777024.704413
2,1, 7,21, 0,16,40.00,50.00,SummerDesignDay
8,17.59724609886134
10,219203084.2007779
1788,0.0
1825,555862519.4073715
2,1, 7,21, 0,16,50.00,60.00,SummerDesignDay
8,17.55650676726033
10,219203084.2007779
1788,0.0
1825,551697871.2951623
2,1, 7,21, 0,16, 0.00,60.00,SummerDesignDay
914,24.00000000000001
954,24.0
994,24.000000000000005
1034,24.000000000000044
1074,24.000000000000026
1114,24.000000000000005
1154,24.000000000000019
1194,24.000000000000055
1234,24.000000000000019
1274,24.00000000000007
1314,23.999999999999948
1354,24.000000000000033
1394,24.0
1434,24.000000000000047
1474,24.000000000000076
1514,27.75404999228745
1554,24.00000000000007
1594,24.000000000000019
1634,24.0
1674,24.00000000000001
2,1, 7,21, 0,17, 0.00,10.00,SummerDesignDay
8,17.50209486331892
10,211593069.5616037
1788,0.0
1825,538825001.7338324
2,1, 7,21, 0,17,10.00,20.00,SummerDesignDay
8,17.447570789624618
10,211593069.5616037
1788,0.0
1825,533140090.6946069
2,1, 7,21, 0,17,20.00,30.00,SummerDesignDay
8,17.392929544208135
10,211593069.5616037
1788,0.0
1825,527416487.3002993
2,1, 7,21, 0,17,30.00,40.00,SummerDesignDay
8,17.33818013976614
10,211593069.5616037
1788,0.0
1825,521551463.74592086
2,1, 7,21, 0,17,40.00,50.00,SummerDesignDay
8,17.283317298559309
10,211593069.5616037
1788,0.0
1825,515574506.7834948
2,1, 7,21, 0,17,50.00,60.00,SummerDesignDay
8,17.22833552437677
10,211593069.5616037
1788,0.0
1825,509485209.42891547
2,1, 7,21, 0,17, 0.00,60.00,SummerDesignDay
914,24.000000000000005
954,24.00000000000001
994,24.000000000000005
1034,24.000000000000019
1074,24.00000000000001
1114,24.00000000000001
1154,24.0
1194,24.00000000000004
1234,24.000000000000047
1274,24.000000000000019
1314,24.0
1354,24.00000000000004
1394,24.000000000000058
1434,24.000000000000033
1474,24.0
1514,27.351394253314614
1554,24.000000000000033
1594,24.000000000000019
1634,24.0
1674,24.00000000000001
2,1, 7,21, 0,18, 0.00,10.00,SummerDesignDay
8,17.159453019160176
10,197617742.47061495
1788,0.0
1825,487415895.6974691
2,1, 7,21, 0,18,10.00,20.00,SummerDesignDay
8,17.090391773337136
10,197617742.47061495
1788,0.0
1825,479270690.6775955
2,1, 7,21, 0,18,20.00,30.00,SummerDesignDay
8,17.021151077964786
10,197617742.47061495
1788,0.0
1825,471312035.15561589
2,1, 7,21, 0,18,30.00,40.00,SummerDesignDay
8,16.951729380464653
10,197617742.47061495
1788,0.0
1825,463559630.22717657
2,1, 7,21, 0,18,40.00,50.00,SummerDesignDay
8,16.882126503829249
10,197617742.47061495
1788,0.0
1825,455985124.5279896
2,1, 7,21, 0,18,50.00,60.00,SummerDesignDay
8,16.812341807494034
10,197617742.47061495
1788,0.0
1825,448543215.66253539
2,1, 7,21, 0,18, 0.00,60.00,SummerDesignDay
914,24.000000000000005
954,24.000000000000015
994,24.000000000000005
1034,24.000000000000033
1074,23.999999999999998
1114,24.000000000000005
1154,24.00000000000001
1194,23.999999999999987
1234,24.00000000000003
1274,23.99999999999996
1314,24.000000000000097
1354,24.000000000000033
1394,24.0
1434,24.000000000000069
1474,24.00000000000007
1514,26.70746902648413
1554,24.00000000000006
1594,24.00000000000001
1634,24.00000000000001
1674,24.0
2,1, 7,21, 0,19, 0.00,10.00,SummerDesignDay
8,16.707321072823203
10,166408654.53354193
1788,0.0
1825,410601228.7348676
2,1, 7,21, 0,19,10.00,20.00,SummerDesignDay
8,16.601881826644556
10,166408654.53354193
1788,0.0
1825,400200257.34339216
2,1, 7,21, 0,19,20.00,30.00,SummerDesignDay
8,16.496030555252849
10,166408654.53354193
1788,0.0
1825,390953045.34709069
2,1, 7,21, 0,19,30.00,40.00,SummerDesignDay
8,16.389760181474104
10,166408654.53354193
1788,0.0
1825,381962530.82893487
2,1, 7,21, 0,19,40.00,50.00,SummerDesignDay
8,16.283067654262039
10,166408654.53354193
1788,0.0
1825,373278520.2311944
2,1, 7,21, 0,19,50.00,60.00,SummerDesignDay
8,16.17595057957811
10,166408654.53354193
1788,0.0
1825,364786481.18860659
2,1, 7,21, 0,19, 0.00,60.00,SummerDesignDay
914,24.00000000000001
954,24.00000000000001
994,23.999999999999998
1034,24.000000000000019
1074,24.000000000000005
1114,24.00000000000001
1154,24.0
1194,24.000000000000044
1234,24.000000000000019
1274,24.000000000000047
1314,24.000000000000005
1354,24.000000000000015
1394,24.00000000000001
1434,24.000000000000033
1474,24.000000000000058
1514,25.681622760575256
1554,24.00000000000003
1594,24.000000000000005
1634,24.000000000000005
1674,24.000000000000019
2,1, 7,21, 0,20, 0.00,10.00,SummerDesignDay
8,16.097123145563505
10,142712195.85654787
1788,0.0
1825,336744135.2447829
2,1, 7,21, 0,20,10.00,20.00,SummerDesignDay
8,16.018070242471564
10,142712195.85654787
1788,0.0
1825,328373272.5845636
2,1, 7,21, 0,20,20.00,30.00,SummerDesignDay
8,15.938779752340516
10,142712195.85654787
1788,0.0
1825,321268590.17992439
2,1, 7,21, 0,20,30.00,40.00,SummerDesignDay
8,15.85926152575189
10,142712195.85654787
1788,0.0
1825,313861437.6857855
2,1, 7,21, 0,20,40.00,50.00,SummerDesignDay
8,15.779503718563929
10,142712195.85654787
1788,0.0
1825,306281395.1815363
2,1, 7,21, 0,20,50.00,60.00,SummerDesignDay
8,15.699515709672767
10,142712195.85654787
1788,0.0
1825,298395531.0957099
2,1, 7,21, 0,20, 0.00,60.00,SummerDesignDay
914,24.0
954,24.000000000000019
994,24.000000000000005
1034,24.000000000000019
1074,24.722940522970707
1114,24.00000000000001
1154,24.000000000000044
1194,24.000000000000019
1234,24.000000000000019
1274,24.000000000000047
1314,24.000000000000058
1354,24.00000000000003
1394,24.0
1434,24.00000000000001
1474,24.000000000000044
1514,24.698060043130984
1554,24.00000000000003
1594,24.00000000000003
1634,24.000000000000005
1674,23.999999999999998
2,1, 7,21, 0,21, 0.00,10.00,SummerDesignDay
8,15.63389147320404
10,137985928.85289858
1788,0.0
1825,289155230.1955246
2,1, 7,21, 0,21,10.00,20.00,SummerDesignDay
8,15.56810827419793
10,137985928.85289858
1788,0.0
1825,281052188.4288411
2,1, 7,21, 0,21,20.00,30.00,SummerDesignDay
8,15.502170882753524
10,137985928.85289858
1788,0.0
1825,273165994.045073
2,1, 7,21, 0,21,30.00,40.00,SummerDesignDay
8,15.436068032613852
10,137985928.85289858
1788,0.0
1825,265303624.04366417
2,1, 7,21, 0,21,40.00,50.00,SummerDesignDay
8,15.369804371206009
10,137985928.85289858
1788,0.0
1825,258061685.9076312
2,1, 7,21, 0,21,50.00,60.00,SummerDesignDay
8,15.303384603594449
10,137985928.85289858
1788,0.0
1825,250373272.15452723
2,1, 7,21, 0,21, 0.00,60.00,SummerDesignDay
914,24.0
954,24.0
994,24.000000000000005
1034,24.000000000000019
1074,24.962338329810945
1114,24.000000000000005
1154,24.000000000000005
1194,24.00000000000001
1234,24.000000000000026
1274,24.000000000000019
1314,24.0
1354,24.000000000000015