Program Version,EnergyPlus, Version 8.9.0-eba93e8e1b, YMD=2019.03.28 13:40
1,5,Environment Title[],Latitude[deg],Longitude[deg],Time Zone[],Elevation[m]
2,8,Day of Simulation[],Month[],Day of Month[],DST Indicator[1=yes 0=no],Hour[],StartMinute[],EndMinute[],DayType
3,5,Cumulative Day of Simulation[],Month[],Day of Month[],DST Indicator[1=yes 0=no],DayType  ! When Daily Report Variables Requested
4,2,Cumulative Days of Simulation[],Month[]  ! When Monthly Report Variables Requested
5,1,Cumulative Days of Simulation[] ! When Run Period Report Variables Requested
6,1,Calendar Year of Simulation[] ! When Annual Report Variables Requested
7,9,Environment,Site Outdoor Air Drybulb Temperature [C] !Monthly [Value,Min,Day,Hour,Minute,Max,Day,Hour,Minute]
8,1,Environment,Site Outdoor Air Wetbulb Temperature [C] !TimeStep
1112,1,SP-ATRIUM (6 =< HEIGHT <= 12M)-SCH-A-SPACE FUNCTION SYS-6 FLR-1 SCH-A HPLCMT-EAST ZN,Zone Air Temperature [C] !Hourly
1113,7,SP-ATRIUM (6 =< HEIGHT <= 12M)-SCH-A-SPACE FUNCTION SYS-6 FLR-1 SCH-A HPLCMT-EAST ZN,Zone Air Relative Humidity [%] !Daily [Value,Min,Hour,Minute,Max,Hour,Minute]
1152,1,SP-ATRIUM (6 =< HEIGHT <= 12M)-SCH-B-SPACE FUNCTION SYS-6 FLR-2 SCH-B HPLCMT-WEST ZN,Zone Air Temperature [C] !Hourly
1153,7,SP-ATRIUM (6 =< HEIGHT <= 12M)-SCH-B-SPACE FUNCTION SYS-6 FLR-2 SCH-B HPLCMT-WEST ZN,Zone Air Relative Humidity [%] !Daily [Value,Min,Hour,Minute,Max,Hour,Minute]
1192,1,SP-ATRIUM (6 =< HEIGHT <= 12M)-SCH-C-SPACE FUNCTION SYS-6 FLR-3 SCH-C HPLCMT-WEST ZN,Zone Air Temperature [C] !Hourly
1193,7,SP-ATRIUM (6 =< HEIGHT <= 12M)-SCH-C-SPACE FUNCTION SYS-6 FLR-3 SCH-C HPLCMT-WEST ZN,Zone Air Relative Humidity [%] !Daily [Value,Min,Hour,Minute,Max,Hour,Minute]
1232,1,SP-ATRIUM (6 =< HEIGHT <= 12M)-SCH-D-SPACE FUNCTION SYS-6 FLR-1 SCH-D HPLCMT-CORE ZN,Zone Air Temperature [C] !Hourly
1233,7,SP-ATRIUM (6 =< HEIGHT <= 12M)-SCH-D-SPACE FUNCTION SYS-6 FLR-1 SCH-D HPLCMT-CORE ZN,Zone Air Relative Humidity [%] !Daily [Value,Min,Hour,Minute,Max,Hour,Minute]
1272,1,SP-ATRIUM (6 =< HEIGHT <= 12M)-SCH-E-SPACE FUNCTION SYS-6 FLR-2 SCH-E HPLCMT-NORTH ZN,Zone Air Temperature [C] !Hourly
1273,7,SP-ATRIUM (6 =< HEIGHT <= 12M)-SCH-E-SPACE FUNCTION SYS-6 FLR-2 SCH-E HPLCMT-NORTH ZN,Zone Air Relative Humidity [%] !Daily [Value,Min,Hour,Minute,Max,Hour,Minute]
1312,1,SP-ATRIUM (6 =< HEIGHT <= 12M)-SCH-F-SPACE FUNCTION SYS-6 FLR-2 SCH-F HPLCMT-EAST ZN,Zone Air Temperature [C] !Hourly
1313,7,SP-ATRIUM (6 =< HEIGHT <= 12M)-SCH-F-SPACE FUNCTION SYS-6 FLR-2 SCH-F HPLCMT-EAST ZN,Zone Air Relative Humidity [%] !Daily [Value,Min,Hour,Minute,Max,Hour,Minute]
1352,1,SP-WHOLEBUILDING-OFFICE SYS-6 FLR-4 SCH-A HPLCMT-SOUTH ZN,Zone Air Temperature [C] !Hourly
1353,7,SP-WHOLEBUILDING-OFFICE SYS-6 FLR-4 SCH-A HPLCMT-SOUTH ZN,Zone Air Relative Humidity [%] !Daily [Value,Min,Hour,Minute,Max,Hour,Minute]
1392,1,SP-WHOLEBUILDING-PENITENTIARY SYS-3 FLR-3 SCH-H HPLCMT-CORE ZN,Zone Air Temperature [C] !Hourly
1393,7,SP-WHOLEBUILDING-PENITENTIARY SYS-3 FLR-3 SCH-H HPLCMT-CORE ZN,Zone Air Relative Humidity [%] !Daily [Value,Min,Hour,Minute,Max,Hour,Minute]
1432,1,SP-WHOLEBUILDING-PERFORMING ARTS THEATRE SYS-3 FLR-3 SCH-C HPLCMT-EAST ZN,Zone Air Temperature [C] !Hourly
1433,7,SP-WHOLEBUILDING-PERFORMING ARTS THEATRE SYS-3 FLR-3 SCH-C HPLCMT-EAST ZN,Zone Air Relative Humidity [%] !Daily [Value,Min,Hour,Minute,Max,Hour,Minute]
1472,1,SP-WHOLEBUILDING-POLICE STATION SYS-3 FLR-3 SCH-H HPLCMT-NORTH ZN,Zone Air Temperature [C] !Hourly
1473,7,SP-WHOLEBUILDING-POLICE STATION SYS-3 FLR-3 SCH-H HPLCMT-NORTH ZN,Zone Air Relative Humidity [%] !Daily [Value,Min,Hour,Minute,Max,Hour,Minute]
1512,1,SP-WHOLEBUILDING-POST OFFICE SYS-6 FLR-1 SCH-A HPLCMT-WEST ZN,Zone Air Temperature [C] !Hourly
1513,7,SP-WHOLEBUILDING-POST OFFICE SYS-6 FLR-1 SCH-A HPLCMT-WEST ZN,Zone Air Relative Humidity [%] !Daily [Value,Min,Hour,Minute,Max,Hour,Minute]
1552,1,SP-WHOLEBUILDING-RELIGIOUS BUILDING SYS-3 FLR-4 SCH-I HPLCMT-CORE ZN,Zone Air Temperature [C] !Hourly
1553,7,SP-WHOLEBUILDING-RELIGIOUS BUILDING SYS-3 FLR-4 SCH-I HPLCMT-CORE ZN,Zone Air Relative Humidity [%] !Daily [Value,Min,Hour,Minute,Max,Hour,Minute]
1592,1,SP-WHOLEBUILDING-RETAIL AREA SYS-6 FLR-3 SCH-C HPLCMT-SOUTH ZN,Zone Air Temperature [C] !Hourly
1593,7,SP-WHOLEBUILDING-RETAIL AREA SYS-6 FLR-3 SCH-C HPLCMT-SOUTH ZN,Zone Air Relative Humidity [%] !Daily [Value,Min,Hour,Minute,Max,Hour,Minute]
1632,1,SP-WHOLEBUILDING-SCHOOL/UNIVERSITY SYS-3 FLR-2 SCH-D HPLCMT-SOUTH ZN,Zone Air Temperature [C] !Hourly
1633,7,SP-WHOLEBUILDING-SCHOOL/UNIVERSITY SYS-3 FLR-2 SCH-D HPLCMT-SOUTH ZN,Zone Air Relative Humidity [%] !Daily [Value,Min,Hour,Minute,Max,Hour,Minute]
1672,1,SP-WHOLEBUILDING-SPORTS ARENA SYS-6 FLR-1 SCH-B HPLCMT-NORTH ZN,Zone Air Temperature [C] !Hourly
1673,7,SP-WHOLEBUILDING-SPORTS ARENA SYS-6 FLR-1 SCH-B HPLCMT-NORTH ZN,Zone Air Relative Humidity [%] !Daily [Value,Min,Hour,Minute,Max,Hour,Minute]
1712,1,SP-WHOLEBUILDING-STORAGE GARAGE SYS-4 FLR-4 SCH-K HPLCMT-WEST ZN,Zone Air Temperature [C] !Hourly
1713,7,SP-WHOLEBUILDING-STORAGE GARAGE SYS-4 FLR-4 SCH-K HPLCMT-WEST ZN,Zone Air Relative Humidity [%] !Daily [Value,Min,Hour,Minute,Max,Hour,Minute]
1752,1,SP-WHOLEBUILDING-TOWN HALL SYS-3 FLR-2 SCH-D HPLCMT-CORE ZN,Zone Air Temperature [C] !Hourly
1753,7,SP-WHOLEBUILDING-TOWN HALL SYS-3 FLR-2 SCH-D HPLCMT-CORE ZN,Zone Air Relative Humidity [%] !Daily [Value,Min,Hour,Minute,Max,Hour,Minute]
1792,1,SP-WHOLEBUILDING-TRANSPORTATION FACILITY SYS-6 FLR-4 SCH-H HPLCMT-EAST ZN,Zone Air Temperature [C] !Hourly
1793,7,SP-WHOLEBUILDING-TRANSPORTATION FACILITY SYS-6 FLR-4 SCH-H HPLCMT-EAST ZN,Zone Air Relative Humidity [%] !Daily [Value,Min,Hour,Minute,Max,Hour,Minute]
1832,1,SP-WHOLEBUILDING-WAREHOUSE SYS-4 FLR-4 SCH-A HPLCMT-NORTH ZN,Zone Air Temperature [C] !Hourly
1833,7,SP-WHOLEBUILDING-WAREHOUSE SYS-4 FLR-4 SCH-A HPLCMT-NORTH ZN,Zone Air Relative Humidity [%] !Daily [Value,Min,Hour,Minute,Max,Hour,Minute]
1872,1,SP-WHOLEBUILDING-WORKSHOP SYS-3 FLR-1 SCH-A HPLCMT-SOUTH ZN,Zone Air Temperature [C] !Hourly
1873,7,SP-WHOLEBUILDING-WORKSHOP SYS-3 FLR-1 SCH-A HPLCMT-SOUTH ZN,Zone Air Relative Humidity [%] !Daily [Value,Min,Hour,Minute,Max,Hour,Minute]
10,1,Electricity:Facility [J] !TimeStep
878,1,Gas:Facility [J] !TimeStep
End of Data Dictionary
1,FORT MCMURRAY AP ANN CLG .4% CONDNS DB=>MWB,  56.65,-111.22,  -7.00, 369.10
2,1, 7,21, 0, 1, 0.00,10.00,SummerDesignDay
8,14.218136923962174
10,201145481.15371938
878,145222238.21057094
2,1, 7,21, 0, 1,10.00,20.00,SummerDesignDay
8,14.171982153293495
10,200401799.62200294
878,41665755.06346501
2,1, 7,21, 0, 1,20.00,30.00,SummerDesignDay
8,14.125744780286427
10,199719620.03572537
878,41771655.759721908
2,1, 7,21, 0, 1,30.00,40.00,SummerDesignDay
8,14.079436086331978
10,199055608.998273
878,41770719.11345685
2,1, 7,21, 0, 1,40.00,50.00,SummerDesignDay
8,14.033050387896898
10,198361345.29003687
878,52844457.99665486
2,1, 7,21, 0, 1,50.00,60.00,SummerDesignDay
8,13.986581233564835
10,197691242.9684053
878,54085222.164217468
2,1, 7,21, 0, 1, 0.00,60.00,SummerDesignDay
1112,21.85148288205674
1152,22.027348455970154
1192,21.21294400382097
1232,22.09610866807054
1272,22.188820795032016
1312,22.778010029652049
1352,18.026886817844685
1392,23.997500917963924
1432,23.113011404334796
1472,23.999066752534195
1512,21.504177756184594
1552,22.68444278264432
1592,21.169487449042735
1632,22.931784547092563
1672,23.483112439329259
1712,22.917745671187175
1752,23.38480831493257
1792,22.00054769576249
1832,21.9057700867032
1872,23.186301314002536
2,1, 7,21, 0, 2, 0.00,10.00,SummerDesignDay
8,13.95555882260429
10,183053708.8510427
878,53237857.0820945
2,1, 7,21, 0, 2,10.00,20.00,SummerDesignDay
8,13.924507755336454
10,182565314.6791289
878,52677670.72548217
2,1, 7,21, 0, 2,20.00,30.00,SummerDesignDay
8,13.893416042989206
10,182061732.51093997
878,52851783.124583419
2,1, 7,21, 0, 2,30.00,40.00,SummerDesignDay
8,13.862289589689029
10,181564782.72803588
878,52298227.85121996
2,1, 7,21, 0, 2,40.00,50.00,SummerDesignDay
8,13.831134407608739
10,181027186.58307676
878,37984332.66101142
2,1, 7,21, 0, 2,50.00,60.00,SummerDesignDay
8,13.799938415548118
10,180522992.37690134
878,37833213.02542768
2,1, 7,21, 0, 2, 0.00,60.00,SummerDesignDay
1112,21.779527932308459
1152,22.000229245922499
1192,21.069713149485719
1232,22.016809980041946
1272,22.132712151794324
1312,22.655372756631068
1352,18.000291058915054
1392,23.997608287288114
1432,22.73471714308324
1472,23.999116383932944
1512,21.404280413855579
1552,21.439579446158409
1592,20.944158148004758
1632,22.55731011445694
1672,22.835969033180104
1712,22.372888043353709
1752,23.122572548901393
1792,20.729160730142966
1832,21.40181545284699
1872,22.86271546156183
2,1, 7,21, 0, 3, 0.00,10.00,SummerDesignDay
8,13.776521671948676
10,173594815.2121955
878,31664628.517153726
2,1, 7,21, 0, 3,10.00,20.00,SummerDesignDay
8,13.753085235778466
10,173182519.25382615
878,48909020.74669379
2,1, 7,21, 0, 3,20.00,30.00,SummerDesignDay
8,13.729636002354969
10,172764777.04049883
878,48959869.839375067
2,1, 7,21, 0, 3,30.00,40.00,SummerDesignDay
8,13.706147375533054
10,172342500.7256966
878,49024318.53573274
2,1, 7,21, 0, 3,40.00,50.00,SummerDesignDay
8,13.682651961920304
10,171919793.30833207
878,41637095.24294126
2,1, 7,21, 0, 3,50.00,60.00,SummerDesignDay
8,13.659136670643687
10,171497711.70103527
878,24593822.97418153
2,1, 7,21, 0, 3, 0.00,60.00,SummerDesignDay
1112,21.70464936057519
1152,21.30340058099657
1192,20.918170059457883
1232,21.936967590788794
1272,22.06505077746583
1312,22.55828746210766
1352,18.001126023382765
1392,23.997030066468616
1432,22.413876557916749
1472,23.99888673528136
1512,21.300190240691689
1552,20.84722635538926
1592,20.72220406141451
1632,22.249614794672629
1672,22.0200845403488
1712,21.949705344285339
1752,22.9112972856939
1792,20.15454833678553
1832,20.99338079986036
1872,22.597267860069328
2,1, 7,21, 0, 4, 0.00,10.00,SummerDesignDay
8,13.63560137410855
10,170804652.05883146
878,35540461.12825271
2,1, 7,21, 0, 4,10.00,20.00,SummerDesignDay
8,13.612040802606578
10,170395211.34226958
878,48916797.863005477
2,1, 7,21, 0, 4,20.00,30.00,SummerDesignDay
8,13.58846620506876
10,169981280.80452705
878,48973501.88041344
2,1, 7,21, 0, 4,30.00,40.00,SummerDesignDay
8,13.56487178447336
10,169565656.47364716
878,49038245.690117757
2,1, 7,21, 0, 4,40.00,50.00,SummerDesignDay
8,13.541257354069103
10,169158754.4331808
878,36496552.270543057
2,1, 7,21, 0, 4,50.00,60.00,SummerDesignDay
8,13.517617463812285
10,168755972.5436358
878,231128748.8836928
2,1, 7,21, 0, 4, 0.00,60.00,SummerDesignDay
1112,21.630851898848289
1152,20.981371040195385
1192,20.76433530706912
1232,21.858066383528806
1272,21.982263291263185
1312,22.449109996887885
1352,18.000686662098006
1392,23.997168145634388
1432,22.124834972757005
1472,23.99893068677747
1512,21.19425856097721
1552,20.501286342260359
1592,20.51517202554604
1632,21.977512548455534
1672,21.65955640038045
1712,21.611560820881679
1752,22.72898618192238
1792,19.951220114196294
1832,20.66704774319132
1872,22.367626781884029
2,1, 7,21, 0, 5, 0.00,10.00,SummerDesignDay
8,13.50185415824011
10,168292789.4840122
878,40781766.14924935
2,1, 7,21, 0, 5,10.00,20.00,SummerDesignDay
8,13.486076034032447
10,168092271.34271399
878,48926205.851188208
2,1, 7,21, 0, 5,20.00,30.00,SummerDesignDay
8,13.470289340350983
10,167868186.6737827
878,48987209.00164226
2,1, 7,21, 0, 5,30.00,40.00,SummerDesignDay
8,13.454493322631063
10,167646803.90760914
878,49052120.031314428
2,1, 7,21, 0, 5,40.00,50.00,SummerDesignDay
8,13.438688835118548
10,167412498.47457303
878,31300720.203417824
2,1, 7,21, 0, 5,50.00,60.00,SummerDesignDay
8,13.422888173889437
10,167158512.6980957
878,24299512.04653056
2,1, 7,21, 0, 5, 0.00,60.00,SummerDesignDay
1112,21.561253816841135
1152,20.838741104714314
1192,20.61399063013301
1232,21.78268972234579
1272,21.959517593447129
1312,22.456451277452655
1352,18.000640943359163
1392,23.997291809989564
1432,21.953889577946968
1472,23.998921953639493
1512,21.088654260416317
1552,20.254932169002548
1592,20.3243355250703
1632,21.732740223393077
1672,21.529699071780685
1712,21.33127698354288
1752,22.562087132415646
1792,20.041053621272803
1832,20.54458430712585
1872,22.154623909267007
2,1, 7,21, 0, 6, 0.00,10.00,SummerDesignDay
8,13.438688835118548
10,167292579.0186539
878,46034565.25704786
2,1, 7,21, 0, 6,10.00,20.00,SummerDesignDay
8,13.454493322631063
10,167432179.05113266
878,48937544.40564859
2,1, 7,21, 0, 6,20.00,30.00,SummerDesignDay
8,13.470289340350983
10,167548028.99110068
878,49000990.915805388
2,1, 7,21, 0, 6,30.00,40.00,SummerDesignDay
8,13.486076034032447
10,167656151.01560275
878,49065952.38087412
2,1, 7,21, 0, 6,40.00,50.00,SummerDesignDay
8,13.50185415824011
10,167762493.66360579
878,25987209.48409532
2,1, 7,21, 0, 6,50.00,60.00,SummerDesignDay
8,13.517617463812285
10,167879730.70936988
878,26672088.485957374
2,1, 7,21, 0, 6, 0.00,60.00,SummerDesignDay
1112,21.506489499142139
1152,20.728779334035925
1192,20.485723001471354
1232,21.70961711941476
1272,22.004336542047228
1312,22.830991457882346
1352,18.00018151736688
1392,23.997353937601486
1432,22.201487814122414
1472,23.99885081202954
1512,20.986601468970304
1552,20.302574454846359
1592,20.16739531033649
1632,21.614290117707907
1672,21.425153974338686
1712,21.24044696488668
1752,22.477729342461076
1792,20.887867691311184
1832,20.798183887756087
1872,22.033443530975885
2,1, 7,21, 0, 7, 0.00,10.00,SummerDesignDay
8,13.572736920571789
10,169102647.52399374
878,213925613.2234837
2,1, 7,21, 0, 7,10.00,20.00,SummerDesignDay
8,13.627748229152554
10,169571407.50093303
878,152586880.27542389
2,1, 7,21, 0, 7,20.00,30.00,SummerDesignDay
8,13.682651961920304
10,170201122.03343687
878,48962591.261697199
2,1, 7,21, 0, 7,30.00,40.00,SummerDesignDay
8,13.737448093244995
10,170887894.00000266
878,44439808.698022719
2,1, 7,21, 0, 7,40.00,50.00,SummerDesignDay
8,13.792137011831216
10,171590871.21152253
878,24666528.493092915
2,1, 7,21, 0, 7,50.00,60.00,SummerDesignDay
8,13.846719282840333
10,172301521.91297368
878,32658107.60459258
2,1, 7,21, 0, 7, 0.00,60.00,SummerDesignDay
1112,21.4870869786872
1152,20.63946758299705
1192,20.38229237249569
1232,21.64518688407391
1272,21.91581890564434
1312,23.21866171993811
1352,19.89781560517073
1392,23.997923558011466
1432,22.66840854054003
1472,23.99908125819998
1512,20.89647394793951
1552,20.76849334435568
1592,20.05129826337866
1632,21.717252244247715
1672,21.3415800627242
1712,21.313267085679145
1752,22.549405984820454
1792,21.91467899289312
1832,21.190367831668416
1872,22.102241594926313
2,1, 7,21, 0, 8, 0.00,10.00,SummerDesignDay
8,13.978831900527043
10,189059370.9622648
878,159635886.75443013
2,1, 7,21, 0, 8,10.00,20.00,SummerDesignDay
8,14.110321014287419
10,190668032.22545783
878,117800442.34821293
2,1, 7,21, 0, 8,20.00,30.00,SummerDesignDay
8,14.241191509616986
10,192403810.062771
878,49293886.197587709
2,1, 7,21, 0, 8,30.00,40.00,SummerDesignDay
8,14.371447531304272
10,194171034.42108286
878,41503595.14780703
2,1, 7,21, 0, 8,40.00,50.00,SummerDesignDay
8,14.501093766564925
10,195931598.4709198
878,26112602.770944619
2,1, 7,21, 0, 8,50.00,60.00,SummerDesignDay
8,14.630134792273804
10,197714522.61241145
878,134971800.2310788
2,1, 7,21, 0, 8, 0.00,60.00,SummerDesignDay
1112,21.81997343377242
1152,20.563186748954878
1192,20.2977193865935
1232,21.806361654058695
1272,21.85326337054624
1312,23.458812103171558
1352,21.919885674181786
1392,23.998735089033024
1432,23.423686661115185
1472,23.99937447730205
1512,20.94324424365516
1552,21.943767162734333
1592,20.00025386665907
1632,22.17579182379107
1672,21.547394811446066
1712,21.542801108932655
1752,22.86349258325484
1792,22.952020101952788
1832,23.341727171496797
1872,22.762920374574688
2,1, 7,21, 0, 9, 0.00,10.00,SummerDesignDay
8,14.773641492809972
10,274738742.0737718
878,216758129.33472909
2,1, 7,21, 0, 9,10.00,20.00,SummerDesignDay
8,14.91640948124148
10,277597497.7971537
878,128497482.06760216
2,1, 7,21, 0, 9,20.00,30.00,SummerDesignDay
8,15.05843890714102
10,281829294.24165728
878,60425042.20380995
2,1, 7,21, 0, 9,30.00,40.00,SummerDesignDay
8,15.199735893563798
10,285632042.7781205
878,59928987.34415305
2,1, 7,21, 0, 9,40.00,50.00,SummerDesignDay
8,15.340306256439395
10,290670094.35320058
878,59848683.017570089
2,1, 7,21, 0, 9,50.00,60.00,SummerDesignDay
8,15.48015101768072
10,294919031.22615686
878,60203744.80940058
2,1, 7,21, 0, 9, 0.00,60.00,SummerDesignDay
1112,22.641430517309929
1152,20.51977808371748
1192,21.971956933324237
1232,21.995753030851636
1272,22.1431250024493
1312,23.475139899170164
1352,22.007561333370913
1392,23.998738613011168
1432,23.997957393784195
1472,23.99937409659952
1512,22.01392943507159
1552,23.817066786188506
1592,21.890051507827633
1632,23.375976605977085
1672,21.39223977112445
1712,22.721673438016194
1752,23.718813706998579
1792,23.506732740098547
1832,23.999594590936256
1872,23.931363284564968
2,1, 7,21, 0,10, 0.00,10.00,SummerDesignDay
8,15.60467292907716
10,366227581.39481386
878,172453411.62582649
2,1, 7,21, 0,10,10.00,20.00,SummerDesignDay
8,15.72862731650033
10,370125840.30008539
878,70175214.68979155
2,1, 7,21, 0,10,20.00,30.00,SummerDesignDay
8,15.852017409284228
10,373814158.99684956
878,65721715.575261618
2,1, 7,21, 0,10,30.00,40.00,SummerDesignDay
8,15.974848118364367
10,377053818.72958567
878,63040357.80713275
2,1, 7,21, 0,10,40.00,50.00,SummerDesignDay
8,16.097123145563505
10,379878245.21791639
878,63830164.839426558
2,1, 7,21, 0,10,50.00,60.00,SummerDesignDay
8,16.218846351168599
10,382590742.4984652
878,63574507.61889483
2,1, 7,21, 0,10, 0.00,60.00,SummerDesignDay
1112,23.3138075356634
1152,21.948380866850035
1192,22.000399038950218
1232,22.95283952144871
1272,22.78613257060437
1312,23.494503857856015
1352,22.913472004856616
1392,23.998637657648759
1432,23.999689528558578
1472,23.999365363668138
1512,22.8917140686261
1552,25.8187478212778
1592,22.000174208118464
1632,23.999137213356634
1672,21.820876018573519
1712,24.45119851471515
1752,23.999557645286644
1792,23.570417705918375
1832,23.99979798871298
1872,23.999598091468923
2,1, 7,21, 0,11, 0.00,10.00,SummerDesignDay
8,16.325793027093189
10,390307112.8020263
878,73205112.6858066
2,1, 7,21, 0,11,10.00,20.00,SummerDesignDay
8,16.432322158488288
10,393079002.9789381
878,74094988.92433059
2,1, 7,21, 0,11,20.00,30.00,SummerDesignDay
8,16.538424180249178
10,394932083.23015817
878,74065018.85629796
2,1, 7,21, 0,11,30.00,40.00,SummerDesignDay
8,16.644108396469087
10,398150436.43318846
878,88923328.43726406
2,1, 7,21, 0,11,40.00,50.00,SummerDesignDay
8,16.749376736593655
10,401345357.34882387
878,93305650.19491482
2,1, 7,21, 0,11,50.00,60.00,SummerDesignDay
8,16.854232613237156
10,403929278.0444798
878,90477989.05892164
2,1, 7,21, 0,11, 0.00,60.00,SummerDesignDay
1112,23.584388758524445
1152,22.000342244740208
1192,22.000051421369979
1232,23.564066637781793
1272,23.298292213233038
1312,23.132655169620678
1352,23.918829457308747
1392,23.99730230474987
1432,23.99914010781865
1472,23.998868783567244
1512,23.148758580165624
1552,27.64396109759399
1592,22.107444122339858
1632,23.997528958950658
1672,22.300968413735644
1712,26.023638024334315
1752,23.999048743371377
1792,23.90798249892058
1832,23.999626330343078
1872,23.999194869778198
2,1, 7,21, 0,12, 0.00,10.00,SummerDesignDay
8,16.92390823520069
10,408873079.31602916
878,72197216.59899262
2,1, 7,21, 0,12,10.00,20.00,SummerDesignDay
8,16.99340178950456
10,410986888.77326819
878,71949192.03084047
2,1, 7,21, 0,12,20.00,30.00,SummerDesignDay
8,17.06272006743463
10,413065657.1758726
878,71926291.1885625
2,1, 7,21, 0,12,30.00,40.00,SummerDesignDay
8,17.131853229172639
10,415107287.29617008
878,71903143.27955774
2,1, 7,21, 0,12,40.00,50.00,SummerDesignDay
8,17.200807172194087
10,417110190.9611362
878,71879661.80156709
2,1, 7,21, 0,12,50.00,60.00,SummerDesignDay
8,17.269582116758607
10,419059736.8227735
878,76036728.21759723
2,1, 7,21, 0,12, 0.00,60.00,SummerDesignDay
1112,23.68467223033534
1152,21.99992292567521
1192,22.000254758379545
1232,23.694887468324749
1272,23.46706739810249
1312,22.800607888093407
1352,23.99901224718576
1392,23.99723687482722
1432,23.99892911917654
1472,23.99882747775304
1512,23.272842740234567
1552,29.029743079331927
1592,22.568301074873614
1632,23.996912012452499
1672,22.887636924535625
1712,27.387798023634276
1752,23.998896448031819
1792,23.998705777488128
1832,23.99980515655824
1872,23.999070494107813
2,1, 7,21, 0,13, 0.00,10.00,SummerDesignDay
8,17.32447360221357
10,419798397.2739501
878,94785506.51340096
2,1, 7,21, 0,13,10.00,20.00,SummerDesignDay
8,17.379251291230806
10,421521405.68995276
878,95905274.15897203
2,1, 7,21, 0,13,20.00,30.00,SummerDesignDay
8,17.433921312061729
10,423166155.3974522
878,79336372.29328309
2,1, 7,21, 0,13,30.00,40.00,SummerDesignDay
8,17.488473222557489
10,424752799.7758802
878,74847103.55693265
2,1, 7,21, 0,13,40.00,50.00,SummerDesignDay
8,17.542913447755134
10,425238864.1132397
878,74817531.59574165
2,1, 7,21, 0,13,50.00,60.00,SummerDesignDay
8,17.59724609886134
10,426555489.3555474
878,74786735.13305491
2,1, 7,21, 0,13, 0.00,60.00,SummerDesignDay
1112,23.331463825766403
1152,22.112564046316878
1192,22.000051495802614
1232,23.67298614123329
1272,23.55005816175233
1312,22.68674028242465
1352,23.99916409446169
1392,23.99700238586833
1432,23.998404912364227
1472,23.99871738348178
1512,23.207411708815
1552,30.006490510822677
1592,23.05093141977306
1632,23.996849881987
1672,23.513397387582996
1712,28.36963734758547
1752,23.998803470054388
1792,23.99869566051032
1832,23.9999038601436
1872,23.999159493733374
2,1, 7,21, 0,14, 0.00,10.00,SummerDesignDay
8,17.6311450462694
10,427409225.43326196
878,81905312.65487096
2,1, 7,21, 0,14,10.00,20.00,SummerDesignDay
8,17.665000449016245
10,429235324.6510223
878,99071760.82512187
2,1, 7,21, 0,14,20.00,30.00,SummerDesignDay
8,17.698812743128934
10,428851499.38979789
878,94704122.91206636
2,1, 7,21, 0,14,30.00,40.00,SummerDesignDay
8,17.732582050940107
10,430904456.8782861
878,75687615.77367217
2,1, 7,21, 0,14,40.00,50.00,SummerDesignDay
8,17.766307345121004
10,431375180.5977808
878,75659787.72905287
2,1, 7,21, 0,14,50.00,60.00,SummerDesignDay
8,17.79999023167558
10,431877842.8831131
878,75626975.79327436
2,1, 7,21, 0,14, 0.00,60.00,SummerDesignDay
1112,23.192143182985416
1152,22.153306962829789
1192,22.00413385947382
1232,23.70393382812411
1272,23.631613496638026
1312,22.670874227648228
1352,23.999277157298836
1392,23.996703788275924
1432,23.99792680756661
1472,23.99863001126677
1512,23.2376494542717
1552,30.663904358025137
1592,23.356053587763186
1632,23.996978471337106
1672,23.640897670571545
1712,29.08403759579686
1752,23.998733292455076
1792,23.998708212698163
1832,23.99990856071498
1872,23.999248942310886
2,1, 7,21, 0,15, 0.00,10.00,SummerDesignDay
8,17.79999023167558
10,455611722.6966622
878,74762376.81259856
2,1, 7,21, 0,15,10.00,20.00,SummerDesignDay
8,17.79999023167558
10,454686175.718029
878,97191658.42456039
2,1, 7,21, 0,15,20.00,30.00,SummerDesignDay
8,17.79999023167558
10,453058028.3241388
878,98176017.60990905
2,1, 7,21, 0,15,30.00,40.00,SummerDesignDay
8,17.79999023167558
10,448601552.9182774
878,77072337.07644286
2,1, 7,21, 0,15,40.00,50.00,SummerDesignDay
8,17.79999023167558
10,445131418.89608928
878,75660870.82840307
2,1, 7,21, 0,15,50.00,60.00,SummerDesignDay
8,17.79999023167558
10,444574471.65287086
878,75635503.98730435
2,1, 7,21, 0,15, 0.00,60.00,SummerDesignDay
1112,23.50468544139557
1152,22.209888560991187
1192,22.21601535343498
1232,23.738093648146834
1272,23.417579841209528
1312,22.667829061369145
1352,23.999628316172175
1392,24.02723997960391
1432,23.99895133653007
1472,23.9993276566663
1512,23.40745546490554
1552,25.22371067739795
1592,23.447985045131376
1632,23.99863442756731
1672,23.50788831932594
1712,29.42304647909015
1752,23.999385558779506
1792,23.999420535428244
1832,23.999972866976113
1872,23.99956054824183
2,1, 7,21, 0,16, 0.00,10.00,SummerDesignDay
8,17.759562446305357
10,452910829.8554366
878,74606789.98526897
2,1, 7,21, 0,16,10.00,20.00,SummerDesignDay
8,17.71907809634183
10,449846909.4110448
878,85694953.01298659
2,1, 7,21, 0,16,20.00,30.00,SummerDesignDay
8,17.67853788661001
10,449219189.8922112
878,94788249.46773988
2,1, 7,21, 0,16,30.00,40.00,SummerDesignDay
8,17.63791796367351
10,447498892.2091123
878,93057459.55788274
2,1, 7,21, 0,16,40.00,50.00,SummerDesignDay
8,17.59724609886134
10,445638254.47394117
878,74581742.47526254
2,1, 7,21, 0,16,50.00,60.00,SummerDesignDay
8,17.55650676726033
10,444448395.96742686
878,74557445.40539764
2,1, 7,21, 0,16, 0.00,60.00,SummerDesignDay
1112,23.73001144438715
1152,22.414139436072746
1192,22.81371881068286
1232,23.751267785642925
1272,23.598918691045399
1312,22.67114266939949
1352,23.989453530126128
1392,24.030774331638296
1432,23.997601793825685
1472,23.998469527447356
1512,23.60615645415632
1552,23.999621936125835
1592,23.41370831770314
1632,23.996527802386838
1672,23.181464122168234
1712,29.42792327026484
1752,23.998575592129258
1792,23.989893049945015
1832,23.999946726201825
1872,23.998864654895283
2,1, 7,21, 0,17, 0.00,10.00,SummerDesignDay
8,17.50209486331892
10,431355307.01020279
878,68395964.08265499
2,1, 7,21, 0,17,10.00,20.00,SummerDesignDay
8,17.447570789624618
10,429619320.1277794
878,68530487.5571134
2,1, 7,21, 0,17,20.00,30.00,SummerDesignDay
8,17.392929544208135
10,427198259.1925007
878,68476500.25853783
2,1, 7,21, 0,17,30.00,40.00,SummerDesignDay
8,17.33818013976614
10,426653803.85050347
878,68492559.2091382
2,1, 7,21, 0,17,40.00,50.00,SummerDesignDay
8,17.283317298559309
10,425455363.79394057
878,72802292.91805688
2,1, 7,21, 0,17,50.00,60.00,SummerDesignDay
8,17.22833552437677
10,423955642.7850501
878,77773884.22303702
2,1, 7,21, 0,17, 0.00,60.00,SummerDesignDay
1112,23.724559586695976
1152,22.70904036537352
1192,23.286049301896289
1232,23.49187930739178
1272,23.66956684799582
1312,22.70282707691507
1352,23.601256151471508
1392,23.99634236271145
1432,23.997349428218404
1472,23.99839712953555
1512,23.61694743068645
1552,23.999616647459136
1592,23.41272843810235
1632,23.99773882965189
1672,23.086735205015925
1712,29.18924117726131
1752,23.998897565348697
1792,23.632357823771288
1832,23.999834948842929
1872,23.998712472573673
2,1, 7,21, 0,18, 0.00,10.00,SummerDesignDay
8,17.159453019160176
10,405568643.3910591
878,64808746.13498217
2,1, 7,21, 0,18,10.00,20.00,SummerDesignDay
8,17.090391773337136
10,403262096.461244
878,63671906.08737114
2,1, 7,21, 0,18,20.00,30.00,SummerDesignDay
8,17.021151077964786
10,400451614.0291183
878,63716571.15953929
2,1, 7,21, 0,18,30.00,40.00,SummerDesignDay
8,16.951729380464653
10,398567494.01952877
878,63759691.97121964
2,1, 7,21, 0,18,40.00,50.00,SummerDesignDay
8,16.882126503829249
10,396783082.80867949
878,63793572.18837502
2,1, 7,21, 0,18,50.00,60.00,SummerDesignDay
8,16.812341807494034
10,395027730.4236049
878,63820058.86785124
2,1, 7,21, 0,18, 0.00,60.00,SummerDesignDay
1112,23.575816141118666
1152,23.017450845504255
1192,23.455170745295104
1232,22.950533930363667
1272,23.668955628150554
1312,22.810665553412638
1352,22.614897114831263
1392,23.996232355000953
1432,23.997438019651626
1472,23.998361127057025
1512,23.585724021645225
1552,23.99968855663025
1592,23.413716214365338
1632,23.998936919021685
1672,23.144795283383478
1712,28.663492018830696
1752,23.999346759670954
1792,23.102889904918717
1832,23.99987282854112
1872,23.99882313596648
2,1, 7,21, 0,19, 0.00,10.00,SummerDesignDay
8,16.707321072823203
10,371279382.0246098
878,66373098.84063811
2,1, 7,21, 0,19,10.00,20.00,SummerDesignDay
8,16.601881826644556
10,368946696.4121857
878,65836359.971024889
2,1, 7,21, 0,19,20.00,30.00,SummerDesignDay
8,16.496030555252849
10,366468176.4153382
878,60630911.239348229
2,1, 7,21, 0,19,30.00,40.00,SummerDesignDay
8,16.389760181474104
10,363919124.23147746
878,267359140.2229101
2,1, 7,21, 0,19,40.00,50.00,SummerDesignDay
8,16.283067654262039
10,361242667.4265272
878,60715565.17445112
2,1, 7,21, 0,19,50.00,60.00,SummerDesignDay
8,16.17595057957811
10,358530627.66914197
878,60734722.9484836
2,1, 7,21, 0,19, 0.00,60.00,SummerDesignDay
1112,22.989059636141766
1152,23.32871853721727
1192,23.30187014407339
1232,22.63420560625251
1272,23.04849613271122
1312,22.796099134080238
1352,22.00477761673225
1392,23.99609051642453
1432,23.998075898374464
1472,23.99818767588484
1512,22.947585136096114
1552,23.999291442767086
1592,23.38150504257892
1632,23.999311023292223
1672,23.497183203671516
1712,27.85335752141358
1752,23.999412857133966
1792,22.522611704583203
1832,23.999921569954766
1872,23.99941812430895
2,1, 7,21, 0,20, 0.00,10.00,SummerDesignDay
8,16.097123145563505
10,342059770.99781599
878,62293273.45204981
2,1, 7,21, 0,20,10.00,20.00,SummerDesignDay
8,16.018070242471564
10,340106942.64015015
878,62507192.01854891
2,1, 7,21, 0,20,20.00,30.00,SummerDesignDay
8,15.938779752340516
10,338000330.12658318
878,62471502.44669934
2,1, 7,21, 0,20,30.00,40.00,SummerDesignDay
8,15.85926152575189
10,335901661.96608719
878,62427845.33696891
2,1, 7,21, 0,20,40.00,50.00,SummerDesignDay
8,15.779503718563929
10,333812109.51126697
878,269072690.1952748
2,1, 7,21, 0,20,50.00,60.00,SummerDesignDay
8,15.699515709672767
10,331423943.0765786
878,62374539.83929046
2,1, 7,21, 0,20, 0.00,60.00,SummerDesignDay
1112,22.528773226109803
1152,23.476623380679969
1192,22.877007917582366
1232,22.912243469123696
1272,22.626684164640098
1312,22.81680230670739
1352,22.00036303926126
1392,23.996146006365604
1432,23.99898062593032
1472,23.998181887740814
1512,22.45489520315638
1552,23.997948317759719
1592,22.972138712166144
1632,23.99909562404873
1672,23.637755413539414
1712,26.790961703856199
1752,23.99932693564806
1792,22.039490947848028
1832,23.999945937457527
1872,23.999771510043318
2,1, 7,21, 0,21, 0.00,10.00,SummerDesignDay
8,15.63389147320404
10,325726129.0814153
878,71396302.22953786
2,1, 7,21, 0,21,10.00,20.00,SummerDesignDay
8,15.56810827419793
10,323496099.86932739
878,73280549.89135312
2,1, 7,21, 0,21,20.00,30.00,SummerDesignDay
8,15.502170882753524
10,321205054.9477773
878,73266214.21393316