Program Version,EnergyPlus, Version 8.9.0-eba93e8e1b, YMD=2019.04.04 18:00
1,5,Environment Title[],Latitude[deg],Longitude[deg],Time Zone[],Elevation[m]
2,8,Day of Simulation[],Month[],Day of Month[],DST Indicator[1=yes 0=no],Hour[],StartMinute[],EndMinute[],DayType
3,5,Cumulative Day of Simulation[],Month[],Day of Month[],DST Indicator[1=yes 0=no],DayType  ! When Daily Report Variables Requested
4,2,Cumulative Days of Simulation[],Month[]  ! When Monthly Report Variables Requested
5,1,Cumulative Days of Simulation[] ! When Run Period Report Variables Requested
6,1,Calendar Year of Simulation[] ! When Annual Report Variables Requested
7,9,Environment,Site Outdoor Air Drybulb Temperature [C] !Monthly [Value,Min,Day,Hour,Minute,Max,Day,Hour,Minute]
8,1,Environment,Site Outdoor Air Wetbulb Temperature [C] !TimeStep
555,1,SP-WHOLEBUILDING-DINING - FAMILY SYS-3 FLR-1 SCH-B HPLCMT-CORE ZN,Zone Air Temperature [C] !Hourly
556,7,SP-WHOLEBUILDING-DINING - FAMILY SYS-3 FLR-1 SCH-B HPLCMT-CORE ZN,Zone Air Relative Humidity [%] !Daily [Value,Min,Hour,Minute,Max,Hour,Minute]
595,1,SP-WHOLEBUILDING-DORMITORY SYS-3 FLR-1 SCH-G HPLCMT-SOUTH ZN,Zone Air Temperature [C] !Hourly
596,7,SP-WHOLEBUILDING-DORMITORY SYS-3 FLR-1 SCH-G HPLCMT-SOUTH ZN,Zone Air Relative Humidity [%] !Daily [Value,Min,Hour,Minute,Max,Hour,Minute]
635,1,SP-WHOLEBUILDING-EXERCISE CENTRE SYS-3 FLR-1 SCH-B HPLCMT-EAST ZN,Zone Air Temperature [C] !Hourly
636,7,SP-WHOLEBUILDING-EXERCISE CENTRE SYS-3 FLR-1 SCH-B HPLCMT-EAST ZN,Zone Air Relative Humidity [%] !Daily [Value,Min,Hour,Minute,Max,Hour,Minute]
675,1,SP-WHOLEBUILDING-FIRE STATION SYS-4 FLR-1 SCH-F HPLCMT-NORTH ZN,Zone Air Temperature [C] !Hourly
676,7,SP-WHOLEBUILDING-FIRE STATION SYS-4 FLR-1 SCH-F HPLCMT-NORTH ZN,Zone Air Relative Humidity [%] !Daily [Value,Min,Hour,Minute,Max,Hour,Minute]
715,1,SP-WHOLEBUILDING-GYMNASIUM SYS-3 FLR-1 SCH-B HPLCMT-WEST ZN,Zone Air Temperature [C] !Hourly
716,7,SP-WHOLEBUILDING-GYMNASIUM SYS-3 FLR-1 SCH-B HPLCMT-WEST ZN,Zone Air Relative Humidity [%] !Daily [Value,Min,Hour,Minute,Max,Hour,Minute]
10,1,Electricity:Facility [J] !TimeStep
321,1,Gas:Facility [J] !TimeStep
End of Data Dictionary
1,FORT MCMURRAY AP ANN CLG .4% CONDNS DB=>MWB,  56.65,-111.22,  -7.00, 369.10
2,1, 7,21, 0, 1, 0.00,10.00,SummerDesignDay
8,14.218136923962174
10,61683701.93603658
321,45797994.519898649
2,1, 7,21, 0, 1,10.00,20.00,SummerDesignDay
8,14.171982153293495
10,60521596.06846788
321,45204231.64558586
2,1, 7,21, 0, 1,20.00,30.00,SummerDesignDay
8,14.125744780286427
10,60218923.69850474
321,45207365.23731239
2,1, 7,21, 0, 1,30.00,40.00,SummerDesignDay
8,14.079436086331978
10,59908671.86299383
321,45209254.149775888
2,1, 7,21, 0, 1,40.00,50.00,SummerDesignDay
8,14.033050387896898
10,59604634.08940975
321,45211037.46092597
2,1, 7,21, 0, 1,50.00,60.00,SummerDesignDay
8,13.986581233564835
10,59303903.9011701
321,45212811.238814469
2,1, 7,21, 0, 1, 0.00,60.00,SummerDesignDay
555,23.9975785422876
595,23.999195502139434
635,23.998180382432225
675,23.909800160708483
715,23.998021037849019
2,1, 7,21, 0, 2, 0.00,10.00,SummerDesignDay
8,13.95555882260429
10,35909431.14342402
321,40994098.4665761
2,1, 7,21, 0, 2,10.00,20.00,SummerDesignDay
8,13.924507755336454
10,35836345.318165007
321,24561412.356668913
2,1, 7,21, 0, 2,20.00,30.00,SummerDesignDay
8,13.893416042989206
10,35804511.83915695
321,42327742.722897
2,1, 7,21, 0, 2,30.00,40.00,SummerDesignDay
8,13.862289589689029
10,35804511.83915695
321,42364444.123095657
2,1, 7,21, 0, 2,40.00,50.00,SummerDesignDay
8,13.831134407608739
10,35804511.83915695
321,22788680.05333386
2,1, 7,21, 0, 2,50.00,60.00,SummerDesignDay
8,13.799938415548118
10,35804511.83915695
321,42325963.47517233
2,1, 7,21, 0, 2, 0.00,60.00,SummerDesignDay
555,23.618417070468256
595,23.980315057029928
635,23.485191606210518
675,23.452131360689724
715,23.572115780952413
2,1, 7,21, 0, 3, 0.00,10.00,SummerDesignDay
8,13.776521671948676
10,19583618.957470348
321,19942535.74404052
2,1, 7,21, 0, 3,10.00,20.00,SummerDesignDay
8,13.753085235778466
10,19583618.957470348
321,12000.0
2,1, 7,21, 0, 3,20.00,30.00,SummerDesignDay
8,13.729636002354969
10,19583618.957470348
321,14941792.549524518
2,1, 7,21, 0, 3,30.00,40.00,SummerDesignDay
8,13.706147375533054
10,19583618.957470348
321,4321544.142875757
2,1, 7,21, 0, 3,40.00,50.00,SummerDesignDay
8,13.682651961920304
10,19583618.957470348
321,12000.0
2,1, 7,21, 0, 3,50.00,60.00,SummerDesignDay
8,13.659136670643687
10,19583618.957470348
321,19563009.6628421
2,1, 7,21, 0, 3, 0.00,60.00,SummerDesignDay
555,22.423383178567965
595,23.804296984346839
635,22.285128615867376
675,22.932214822342116
715,22.368336392772166
2,1, 7,21, 0, 4, 0.00,10.00,SummerDesignDay
8,13.63560137410855
10,18819466.348774796
321,12000.0
2,1, 7,21, 0, 4,10.00,20.00,SummerDesignDay
8,13.612040802606578
10,18819466.348774796
321,19457160.761971304
2,1, 7,21, 0, 4,20.00,30.00,SummerDesignDay
8,13.58846620506876
10,18819466.348774796
321,12000.0
2,1, 7,21, 0, 4,30.00,40.00,SummerDesignDay
8,13.56487178447336
10,18819466.348774796
321,12000.0
2,1, 7,21, 0, 4,40.00,50.00,SummerDesignDay
8,13.541257354069103
10,18819466.348774796
321,19389254.0668807
2,1, 7,21, 0, 4,50.00,60.00,SummerDesignDay
8,13.517617463812285
10,18819466.348774796
321,12000.0
2,1, 7,21, 0, 4, 0.00,60.00,SummerDesignDay
555,21.45681366384197
595,23.477499828023544
635,21.38264845200384
675,22.311304340380095
715,21.42818647795912
2,1, 7,21, 0, 5, 0.00,10.00,SummerDesignDay
8,13.50185415824011
10,18819466.348774796
321,19516199.7600401
2,1, 7,21, 0, 5,10.00,20.00,SummerDesignDay
8,13.486076034032447
10,18819466.348774796
321,12000.0
2,1, 7,21, 0, 5,20.00,30.00,SummerDesignDay
8,13.470289340350983
10,18819466.348774796
321,12000.0
2,1, 7,21, 0, 5,30.00,40.00,SummerDesignDay
8,13.454493322631063
10,18819466.348774796
321,19462011.24661425
2,1, 7,21, 0, 5,40.00,50.00,SummerDesignDay
8,13.438688835118548
10,18819466.348774796
321,12000.0
2,1, 7,21, 0, 5,50.00,60.00,SummerDesignDay
8,13.422888173889437
10,18819466.348774796
321,12000.0
2,1, 7,21, 0, 5, 0.00,60.00,SummerDesignDay
555,21.12327956783513
595,23.16606199753628
635,21.08153772273328
675,21.821869273649218
715,21.11803648964759
2,1, 7,21, 0, 6, 0.00,10.00,SummerDesignDay
8,13.438688835118548
10,18819466.348774796
321,19563202.920881384
2,1, 7,21, 0, 6,10.00,20.00,SummerDesignDay
8,13.454493322631063
10,18819466.348774796
321,12000.0
2,1, 7,21, 0, 6,20.00,30.00,SummerDesignDay
8,13.470289340350983
10,18819466.348774796
321,19599183.190347099
2,1, 7,21, 0, 6,30.00,40.00,SummerDesignDay
8,13.486076034032447
10,18819466.348774796
321,12000.0
2,1, 7,21, 0, 6,40.00,50.00,SummerDesignDay
8,13.50185415824011
10,18819466.348774796
321,19616424.911497125
2,1, 7,21, 0, 6,50.00,60.00,SummerDesignDay
8,13.517617463812285
10,18819466.348774796
321,12000.0
2,1, 7,21, 0, 6, 0.00,60.00,SummerDesignDay
555,20.972691200967885
595,22.963409956071009
635,20.9484492505266
675,21.621780827626979
715,20.982141996782216
2,1, 7,21, 0, 7, 0.00,10.00,SummerDesignDay
8,13.572736920571789
10,20956617.75365381
321,20363117.439919756
2,1, 7,21, 0, 7,10.00,20.00,SummerDesignDay
8,13.627748229152554
10,20956617.75365381
321,20452618.46189336
2,1, 7,21, 0, 7,20.00,30.00,SummerDesignDay
8,13.682651961920304
10,20956617.75365381
321,20459152.05398597
2,1, 7,21, 0, 7,30.00,40.00,SummerDesignDay
8,13.737448093244995
10,20956617.75365381
321,20464808.927478509
2,1, 7,21, 0, 7,40.00,50.00,SummerDesignDay
8,13.792137011831216
10,20956617.75365381
321,20469976.353314938
2,1, 7,21, 0, 7,50.00,60.00,SummerDesignDay
8,13.846719282840333
10,20956617.75365381
321,8609504.806686972
2,1, 7,21, 0, 7, 0.00,60.00,SummerDesignDay
555,20.902865062162609
595,23.194733656134067
635,20.887104745183917
675,21.854023917812304
715,20.919832068478564
2,1, 7,21, 0, 8, 0.00,10.00,SummerDesignDay
8,13.978831900527043
10,26232534.43931617
321,34680153.13858094
2,1, 7,21, 0, 8,10.00,20.00,SummerDesignDay
8,14.110321014287419
10,26232534.43931617
321,42693354.069656688
2,1, 7,21, 0, 8,20.00,30.00,SummerDesignDay
8,14.241191509616986
10,27874701.77046498
321,42423508.423447448
2,1, 7,21, 0, 8,30.00,40.00,SummerDesignDay
8,14.371447531304272
10,28710645.13069798
321,23325491.847621859
2,1, 7,21, 0, 8,40.00,50.00,SummerDesignDay
8,14.501093766564925
10,28248666.332198834
321,42688112.20530849
2,1, 7,21, 0, 8,50.00,60.00,SummerDesignDay
8,14.630134792273804
10,28463016.914601089
321,42707766.81639638
2,1, 7,21, 0, 8, 0.00,60.00,SummerDesignDay
555,21.022214361250918
595,23.901091284333519
635,21.007487134141248
675,22.542245753193965
715,21.039842384172585
2,1, 7,21, 0, 9, 0.00,10.00,SummerDesignDay
8,14.773641492809972
10,29160709.894242716
321,43380477.044022608
2,1, 7,21, 0, 9,10.00,20.00,SummerDesignDay
8,14.91640948124148
10,29112026.669238129
321,28324884.340510239
2,1, 7,21, 0, 9,20.00,30.00,SummerDesignDay
8,15.05843890714102
10,29165273.272503519
321,38840376.859814789
2,1, 7,21, 0, 9,30.00,40.00,SummerDesignDay
8,15.199735893563798
10,29217870.7740644
321,43429663.66631546
2,1, 7,21, 0, 9,40.00,50.00,SummerDesignDay
8,15.340306256439395
10,29730568.544194547
321,43437946.14194609
2,1, 7,21, 0, 9,50.00,60.00,SummerDesignDay
8,15.48015101768072
10,30360862.751224255
321,43447068.80757187
2,1, 7,21, 0, 9, 0.00,60.00,SummerDesignDay
555,21.847841778145186
595,23.99818507434527
635,21.82454530768509
675,23.671907026767454
715,21.856279671681837
2,1, 7,21, 0,10, 0.00,10.00,SummerDesignDay
8,15.60467292907716
10,39408852.559946019
321,51103351.290064837
2,1, 7,21, 0,10,10.00,20.00,SummerDesignDay
8,15.72862731650033
10,39264335.07083618
321,75477099.43307404
2,1, 7,21, 0,10,20.00,30.00,SummerDesignDay
8,15.852017409284228
10,39509512.85277882
321,52091002.85412741
2,1, 7,21, 0,10,30.00,40.00,SummerDesignDay
8,15.974848118364367
10,40137479.14596261
321,75457149.34525465
2,1, 7,21, 0,10,40.00,50.00,SummerDesignDay
8,16.097123145563505
10,45550961.533130858
321,52098576.09916816
2,1, 7,21, 0,10,50.00,60.00,SummerDesignDay
8,16.218846351168599
10,48383813.237848687
321,75468949.70596524
2,1, 7,21, 0,10, 0.00,60.00,SummerDesignDay
555,23.574710163811344
595,23.999657342957517
635,23.529498142669309
675,23.999484351715329
715,23.57464189224591
2,1, 7,21, 0,11, 0.00,10.00,SummerDesignDay
8,16.325793027093189
10,57818677.16964889
321,49888623.08584834
2,1, 7,21, 0,11,10.00,20.00,SummerDesignDay
8,16.432322158488288
10,59059854.20315255
321,60628628.92207739
2,1, 7,21, 0,11,20.00,30.00,SummerDesignDay
8,16.538424180249178
10,59688465.285648178
321,60801886.044316608
2,1, 7,21, 0,11,30.00,40.00,SummerDesignDay
8,16.644108396469087
10,60332496.47397829
321,49677718.46689319
2,1, 7,21, 0,11,40.00,50.00,SummerDesignDay
8,16.749376736593655
10,60915813.42726594
321,69832801.3225745
2,1, 7,21, 0,11,50.00,60.00,SummerDesignDay
8,16.854232613237156
10,61476331.76605923
321,51605306.23926574
2,1, 7,21, 0,11, 0.00,60.00,SummerDesignDay
555,23.99921062126265
595,23.99943904439111
635,23.999410677716086
675,23.99930188632406
715,23.999358438181017
2,1, 7,21, 0,12, 0.00,10.00,SummerDesignDay
8,16.92390823520069
10,73264785.46049614
321,43521452.12968838
2,1, 7,21, 0,12,10.00,20.00,SummerDesignDay
8,16.99340178950456
10,73290475.8946989
321,42959557.93382507
2,1, 7,21, 0,12,20.00,30.00,SummerDesignDay
8,17.06272006743463
10,73713327.30124595
321,23123415.33403751
2,1, 7,21, 0,12,30.00,40.00,SummerDesignDay
8,17.131853229172639
10,74147046.89594496
321,42923365.76152883
2,1, 7,21, 0,12,40.00,50.00,SummerDesignDay
8,17.200807172194087
10,74531388.30789763
321,42933615.17269946
2,1, 7,21, 0,12,50.00,60.00,SummerDesignDay
8,17.269582116758607
10,74888052.5335837
321,42954759.16551573
2,1, 7,21, 0,12, 0.00,60.00,SummerDesignDay
555,23.998346123981674
595,23.999554079027335
635,23.998724255178599
675,23.999499817943588
715,23.998616059046275
2,1, 7,21, 0,13, 0.00,10.00,SummerDesignDay
8,17.32447360221357
10,76515432.61814144
321,38337931.87564165
2,1, 7,21, 0,13,10.00,20.00,SummerDesignDay
8,17.379251291230806
10,76704605.90020344
321,34002477.86688622
2,1, 7,21, 0,13,20.00,30.00,SummerDesignDay
8,17.433921312061729
10,76895305.35411412
321,39617059.85921889
2,1, 7,21, 0,13,30.00,40.00,SummerDesignDay
8,17.488473222557489
10,77074355.05010271
321,43912683.81801331
2,1, 7,21, 0,13,40.00,50.00,SummerDesignDay
8,17.542913447755134
10,77276423.12456231
321,43914391.66864471
2,1, 7,21, 0,13,50.00,60.00,SummerDesignDay
8,17.59724609886134
10,77534806.40830565
321,43916777.80692307
2,1, 7,21, 0,13, 0.00,60.00,SummerDesignDay
555,23.99749369361763
595,23.99960466923872
635,23.997946386436199
675,23.99965728585087
715,23.99782982867032
2,1, 7,21, 0,14, 0.00,10.00,SummerDesignDay
8,17.6311450462694
10,77470616.82385467
321,45820204.28738006
2,1, 7,21, 0,14,10.00,20.00,SummerDesignDay
8,17.665000449016245
10,77644765.5257721
321,46051583.786846559
2,1, 7,21, 0,14,20.00,30.00,SummerDesignDay
8,17.698812743128934
10,77773931.08988966
321,46061889.36477074
2,1, 7,21, 0,14,30.00,40.00,SummerDesignDay
8,17.732582050940107
10,77914971.9854207
321,48614616.779749657
2,1, 7,21, 0,14,40.00,50.00,SummerDesignDay
8,17.766307345121004
10,78054153.08624816
321,54531106.21763791
2,1, 7,21, 0,14,50.00,60.00,SummerDesignDay
8,17.79999023167558
10,78216373.82939969
321,54463218.782823499
2,1, 7,21, 0,14, 0.00,60.00,SummerDesignDay
555,23.99707970168815
595,23.999636922099027
635,23.997592657095056
675,23.999656278749119
715,23.99745397835868
2,1, 7,21, 0,15, 0.00,10.00,SummerDesignDay
8,17.79999023167558
10,77407083.6128739
321,47173931.253429319
2,1, 7,21, 0,15,10.00,20.00,SummerDesignDay
8,17.79999023167558
10,77366331.61405322
321,46295956.53394767
2,1, 7,21, 0,15,20.00,30.00,SummerDesignDay
8,17.79999023167558
10,77352645.5731128
321,46310378.71458402
2,1, 7,21, 0,15,30.00,40.00,SummerDesignDay
8,17.79999023167558
10,77328949.52431423
321,46324932.97017892
2,1, 7,21, 0,15,40.00,50.00,SummerDesignDay
8,17.79999023167558
10,77307160.94688735
321,46339350.347352448
2,1, 7,21, 0,15,50.00,60.00,SummerDesignDay
8,17.79999023167558
10,77288777.13103283
321,51389367.85595134
2,1, 7,21, 0,15, 0.00,60.00,SummerDesignDay
555,23.9974288191216
595,23.999605923334398
635,23.997926773017324
675,23.999680073814536
715,23.997772461103098
2,1, 7,21, 0,16, 0.00,10.00,SummerDesignDay
8,17.759562446305357
10,74992698.69750385
321,39503883.082323107
2,1, 7,21, 0,16,10.00,20.00,SummerDesignDay
8,17.71907809634183
10,74306393.89762052
321,44167465.55254228
2,1, 7,21, 0,16,20.00,30.00,SummerDesignDay
8,17.67853788661001
10,74042080.80794129
321,44165942.90557758
2,1, 7,21, 0,16,30.00,40.00,SummerDesignDay
8,17.63791796367351
10,73756302.8707961
321,44166333.90601963
2,1, 7,21, 0,16,40.00,50.00,SummerDesignDay
8,17.59724609886134
10,73479113.13328807
321,44166774.40547612
2,1, 7,21, 0,16,50.00,60.00,SummerDesignDay
8,17.55650676726033
10,73214294.86194723
321,44167160.96455627
2,1, 7,21, 0,16, 0.00,60.00,SummerDesignDay
555,23.998234636880949
595,23.999441376261019
635,23.998621303113294
675,23.99974920633311
715,23.99848977262719
2,1, 7,21, 0,17, 0.00,10.00,SummerDesignDay
8,17.50209486331892
10,73281867.6428226
321,42850231.13197799
2,1, 7,21, 0,17,10.00,20.00,SummerDesignDay
8,17.447570789624618
10,72762504.06643658
321,26697102.158505918
2,1, 7,21, 0,17,20.00,30.00,SummerDesignDay
8,17.392929544208135
10,72463729.73502247
321,39250894.36242996
2,1, 7,21, 0,17,30.00,40.00,SummerDesignDay
8,17.33818013976614
10,72185044.71128123
321,42685419.30574337
2,1, 7,21, 0,17,40.00,50.00,SummerDesignDay
8,17.283317298559309
10,71918561.56579562
321,42714380.15240061
2,1, 7,21, 0,17,50.00,60.00,SummerDesignDay
8,17.22833552437677
10,71656428.80900225
321,22987180.612823544
2,1, 7,21, 0,17, 0.00,60.00,SummerDesignDay
555,23.998661356957073
595,23.99924490123803
635,23.998955117075274
675,23.99977254551277
715,23.99885185760918
2,1, 7,21, 0,18, 0.00,10.00,SummerDesignDay
8,17.159453019160176
10,71351193.31791537
321,44014231.08238621
2,1, 7,21, 0,18,10.00,20.00,SummerDesignDay
8,17.090391773337136
10,71241059.26660805
321,44165757.70653899
2,1, 7,21, 0,18,20.00,30.00,SummerDesignDay
8,17.021151077964786
10,70942120.47806312
321,44166612.3295495
2,1, 7,21, 0,18,30.00,40.00,SummerDesignDay
8,16.951729380464653
10,70663370.52903469
321,44167047.36177895
2,1, 7,21, 0,18,40.00,50.00,SummerDesignDay
8,16.882126503829249
10,70384663.0146697
321,44167396.309263329
2,1, 7,21, 0,18,50.00,60.00,SummerDesignDay
8,16.812341807494034
10,70105292.12869175
321,44167690.67085198
2,1, 7,21, 0,18, 0.00,60.00,SummerDesignDay
555,23.998745261695075
595,23.999029524851435
635,23.999004021472758
675,23.999711942478517
715,23.99891173241801
2,1, 7,21, 0,19, 0.00,10.00,SummerDesignDay
8,16.707321072823203
10,74824762.57968767
321,45582309.86883182
2,1, 7,21, 0,19,10.00,20.00,SummerDesignDay
8,16.601881826644556
10,74742382.00193236
321,45749349.85655509
2,1, 7,21, 0,19,20.00,30.00,SummerDesignDay
8,16.496030555252849
10,74385229.75047773
321,45755861.12618846
2,1, 7,21, 0,19,30.00,40.00,SummerDesignDay
8,16.389760181474104
10,74040638.53616528
321,45762696.66826622
2,1, 7,21, 0,19,40.00,50.00,SummerDesignDay
8,16.283067654262039
10,73675546.64404539
321,45769491.21229561
2,1, 7,21, 0,19,50.00,60.00,SummerDesignDay
8,16.17595057957811
10,73288333.55422326
321,45776231.26633953
2,1, 7,21, 0,19, 0.00,60.00,SummerDesignDay
555,23.9982427711119
595,23.997821663399809
635,23.998556482056654
675,23.999682559278978
715,23.99844578365067
2,1, 7,21, 0,20, 0.00,10.00,SummerDesignDay
8,16.097123145563505
10,84482778.48161558
321,49588899.42020366
2,1, 7,21, 0,20,10.00,20.00,SummerDesignDay
8,16.018070242471564
10,84752906.06388635
321,54523732.931562449
2,1, 7,21, 0,20,20.00,30.00,SummerDesignDay
8,15.938779752340516
10,84462743.40259142
321,54364397.78148132
2,1, 7,21, 0,20,30.00,40.00,SummerDesignDay
8,15.85926152575189
10,84206521.68320698
321,46011594.93987756
2,1, 7,21, 0,20,40.00,50.00,SummerDesignDay
8,15.779503718563929
10,83912503.19502805
321,46020246.50405727
2,1, 7,21, 0,20,50.00,60.00,SummerDesignDay
8,15.699515709672767
10,83597865.11568898
321,46030822.73585656
2,1, 7,21, 0,20, 0.00,60.00,SummerDesignDay
555,23.996790639892596
595,24.236069948985898
635,23.997283285322529
675,23.999268420002946
715,23.99713026194617
2,1, 7,21, 0,21, 0.00,10.00,SummerDesignDay
8,15.63389147320404
10,84755631.85506045
321,63012134.42937976
2,1, 7,21, 0,21,10.00,20.00,SummerDesignDay
8,15.56810827419793
10,85310643.01120869
321,66282296.71776306
2,1, 7,21, 0,21,20.00,30.00,SummerDesignDay
8,15.502170882753524
10,85043970.56285815
321,69458281.1146484
2,1, 7,21, 0,21,30.00,40.00,SummerDesignDay
8,15.436068032613852
10,84754564.34553238
321,60857745.07023299
2,1, 7,21, 0,21,40.00,50.00,SummerDesignDay
8,15.369804371206009
10,84471943.7624734
321,74918046.74800126
2,1, 7,21, 0,21,50.00,60.00,SummerDesignDay
8,15.303384603594449
10,84159306.86772263
321,55451910.95201182
2,1, 7,21, 0,21, 0.00,60.00,SummerDesignDay
555,23.996005063857337
595,24.325171432430339
635,23.996650858016925
675,23.998642847454179
715,23.996457132478743
2,1, 7,21, 0,22, 0.00,10.00,SummerDesignDay
8,15.236797685071274
10,84242217.56886485
321,73569130.48146232
2,1, 7,21, 0,22,10.00,20.00,SummerDesignDay
8,15.170047891787942
10,83948840.51575887
321,51613273.791054118
2,1, 7,21, 0,22,20.00,30.00,SummerDesignDay
8,15.103134826860483
10,83631926.6935778
321,66849278.37788757
2,1, 7,21, 0,22,30.00,40.00,SummerDesignDay
8,15.036063385178485
10,83291479.98048169
321,57985678.70991239
2,1, 7,21, 0,22,40.00,50.00,SummerDesignDay
8,14.968821767219835
10,82828393.9245762
321,60439607.83362898
2,1, 7,21, 0,22,50.00,60.00,SummerDesignDay
8,14.90141525878635
10,82543491.25029284
321,64389237.01519947
2,1, 7,21, 0,22, 0.00,60.00,SummerDesignDay
555,23.995429216867476
595,24.086720168219644
635,23.996229677833168
675,23.998167034479626
715,23.99600722575332
2,1, 7,21, 0,23, 0.00,10.00,SummerDesignDay
8,14.848873673278373
10,78124441.66161864
321,62269820.413860078
2,1, 7,21, 0,23,10.00,20.00,SummerDesignDay
8,14.796237168136719
10,77872354.73184246
321,67760709.04361567
2,1, 7,21, 0,23,20.00,30.00,SummerDesignDay
8,14.743494321455645
10,77579500.61910717
321,67979118.07234082
2,1, 7,21, 0,23,30.00,40.00,SummerDesignDay
8,14.690649975253665
10,77247386.98731804
321,62328481.36744326
2,1, 7,21, 0,23,40.00,50.00,SummerDesignDay
8,14.637704281233117
10,76938248.60624098
321,73431086.24723615
2,1, 7,21, 0,23,50.00,60.00,SummerDesignDay
8,14.584656914839757
10,76605910.28169732
321,56921047.78755106
2,1, 7,21, 0,23, 0.00,60.00,SummerDesignDay
555,23.996107230945908
595,23.997641506834609
635,23.996893276581536
675,23.99814341703323
715,23.99668064005091
2,1, 7,21, 0,24, 0.00,10.00,SummerDesignDay
8,14.531507212058875
10,71023954.7124267
321,75563725.27602811
2,1, 7,21, 0,24,10.00,20.00,SummerDesignDay
8,14.47825496413355
10,70429228.63047542
321,52171356.88280727
2,1, 7,21, 0,24,20.00,30.00,SummerDesignDay
8,14.4249000133173
10,70089150.36223419
321,75352924.2680607
2,1, 7,21, 0,24,30.00,40.00,SummerDesignDay
8,14.371447531304272
10,69721151.69152782
321,52216578.98661797
2,1, 7,21, 0,24,40.00,50.00,SummerDesignDay
8,14.31788619902223
10,69362661.94570084
321,75307118.33296688
2,1, 7,21, 0,24,50.00,60.00,SummerDesignDay
8,14.264220970176066
10,68992165.25966245
321,52261899.84296853
2,1, 7,21, 0,24, 0.00,60.00,SummerDesignDay
555,23.99681597148587
595,23.998405650937078
635,23.997556993918378
675,23.998381379339198
715,23.997367327131334
3,1, 7,21, 0,SummerDesignDay
556,54.59344000358528,47.629063462751549,10,40,59.692869398731257,15,10
596,61.26803055046678,55.81668316611677, 1,60,68.27468510789277,19,60
636,53.84266220756434,47.33897818397266,10,40,58.42307884002129,15,10
676,55.68659915571626,51.322224385958339,20,10,59.11183756300722, 7,60
716,53.60955146505449,47.143878188574799,10,40,58.22022992550252,15,10
4,1, 7
7,22.2505,16.5,21, 5,60,28.9,21,14,60
1,FORT MCMURRAY AP ANN HTG 99.6% CONDNS DB,  56.65,-111.22,  -7.00, 369.10
2,1, 1,21, 0, 1, 0.00,10.00,WinterDesignDay
8,-36.2
10,55156377.465073589
321,489720083.6305171
2,1, 1,21, 0, 1,10.00,20.00,WinterDesignDay
8,-36.2
10,55156377.465073589
321,492185202.2564909
2,1, 1,21, 0, 1,20.00,30.00,WinterDesignDay
8,-36.2
10,55156377.465073589
321,498166788.3456805
2,1, 1,21, 0, 1,30.00,40.00,WinterDesignDay
8,-36.2
10,55156377.465073589
321,507930249.1016235
2,1, 1,21, 0, 1,40.00,50.00,WinterDesignDay
8,-36.2
10,55156377.465073589
321,492665908.25085327
2,1, 1,21, 0, 1,50.00,60.00,WinterDesignDay
8,-36.2
10,55156377.465073589
321,492800973.1106162
2,1, 1,21, 0, 1, 0.00,60.00,WinterDesignDay
555,22.000000424577377
595,21.99903334061456
635,21.99999994922332
675,21.99887354164434
715,21.9999991205286
2,1, 1,21, 0, 2, 0.00,10.00,WinterDesignDay
8,-36.2
10,35817535.21256673
321,498772249.85929515
2,1, 1,21, 0, 2,10.00,20.00,WinterDesignDay
8,-36.2
10,35817529.277710739
321,500735832.83688828
2,1, 1,21, 0, 2,20.00,30.00,WinterDesignDay
8,-36.2
10,35817526.45156159
321,501309307.5102652
2,1, 1,21, 0, 2,30.00,40.00,WinterDesignDay
8,-36.2
10,35817523.885034549
321,501899864.270086
2,1, 1,21, 0, 2,40.00,50.00,WinterDesignDay
8,-36.2
10,35830481.56808354
321,502403287.66835716
2,1, 1,21, 0, 2,50.00,60.00,WinterDesignDay
8,-36.2
10,35804560.665753077
321,495104153.2720038
2,1, 1,21, 0, 2, 0.00,60.00,WinterDesignDay
555,22.000007104255884
595,20.886056778991333
635,22.000005178753054
675,20.688287542897866
715,22.000006574257573
2,1, 1,21, 0, 3, 0.00,10.00,WinterDesignDay
8,-36.2
10,19583618.957470348
321,423802078.0470219
2,1, 1,21, 0, 3,10.00,20.00,WinterDesignDay
8,-36.2
10,19583618.957470348
321,433107488.94116738
2,1, 1,21, 0, 3,20.00,30.00,WinterDesignDay
8,-36.2
10,19583618.957470348
321,415944502.0122785
2,1, 1,21, 0, 3,30.00,40.00,WinterDesignDay
8,-36.2
10,19583618.957470348
321,433602247.78374966
2,1, 1,21, 0, 3,40.00,50.00,WinterDesignDay
8,-36.2
10,19583618.957470348
321,416033484.028233
2,1, 1,21, 0, 3,50.00,60.00,WinterDesignDay
8,-36.2
10,19583618.957470348
321,434495803.61549296
2,1, 1,21, 0, 3, 0.00,60.00,WinterDesignDay
555,19.731739629285518
595,19.958126505757777
635,19.688775345091686
675,19.65156291005049
715,19.708825801496994
2,1, 1,21, 0, 4, 0.00,10.00,WinterDesignDay
8,-36.2
10,18819466.348774796
321,416077903.04048487
2,1, 1,21, 0, 4,10.00,20.00,WinterDesignDay
8,-36.2
10,18819493.29309416
321,449696937.6407647
2,1, 1,21, 0, 4,20.00,30.00,WinterDesignDay
8,-36.2
10,18819480.142965273
321,437555695.585974
2,1, 1,21, 0, 4,30.00,40.00,WinterDesignDay
8,-36.2
10,18819481.330874299
321,453664338.2321361
2,1, 1,21, 0, 4,40.00,50.00,WinterDesignDay
8,-36.2
10,18819477.28447624
321,436306748.41355708
2,1, 1,21, 0, 4,50.00,60.00,WinterDesignDay
8,-36.2
10,18819475.249964585
321,450800804.67307928
2,1, 1,21, 0, 4, 0.00,60.00,WinterDesignDay
555,18.04032013330993
595,19.34733184739269
635,18.028478757014587
675,18.872158551084284
715,18.033640879628235
2,1, 1,21, 0, 5, 0.00,10.00,WinterDesignDay
8,-36.2
10,18819473.498528478
321,444296777.2484449
2,1, 1,21, 0, 5,10.00,20.00,WinterDesignDay
8,-36.2
10,18819472.54871169
321,438064235.98442068
2,1, 1,21, 0, 5,20.00,30.00,WinterDesignDay
8,-36.2
10,18819471.7471537
321,457946502.1045839
2,1, 1,21, 0, 5,30.00,40.00,WinterDesignDay
8,-36.2
10,18819470.797778734
321,438725637.6778049
2,1, 1,21, 0, 5,40.00,50.00,WinterDesignDay
8,-36.2
10,18819470.25592698
321,458542480.03620806
2,1, 1,21, 0, 5,50.00,60.00,WinterDesignDay
8,-36.2
10,18819469.996375119
321,439182986.0779492
2,1, 1,21, 0, 5, 0.00,60.00,WinterDesignDay
555,17.999999759467113
595,18.883192635521018
635,17.99999918438927
675,18.28871769307201
715,17.99999958930342
2,1, 1,21, 0, 6, 0.00,10.00,WinterDesignDay
8,-36.2
10,18819469.588885625
321,459119560.5387836
2,1, 1,21, 0, 6,10.00,20.00,WinterDesignDay
8,-36.2
10,18819469.181451508
321,439506469.93309947
2,1, 1,21, 0, 6,20.00,30.00,WinterDesignDay
8,-36.2
10,18819468.307295316
321,459389558.8484128
2,1, 1,21, 0, 6,30.00,40.00,WinterDesignDay
8,-36.2
10,18819467.422454213
321,439733657.774993
2,1, 1,21, 0, 6,40.00,50.00,WinterDesignDay
8,-36.2
10,18819467.422438194
321,459565460.6380698
2,1, 1,21, 0, 6,50.00,60.00,WinterDesignDay
8,-36.2
10,18819467.422422179
321,439893633.51719436
2,1, 1,21, 0, 6, 0.00,60.00,WinterDesignDay
555,18.000000407416566
595,18.672663962334324
635,17.999980760210307
675,18.087160430509365
715,17.999985028056626
2,1, 1,21, 0, 7, 0.00,10.00,WinterDesignDay
8,-36.2
10,20956618.69308214
321,460612905.7709883
2,1, 1,21, 0, 7,10.00,20.00,WinterDesignDay
8,-36.2
10,20956618.69306989
321,460724643.069576
2,1, 1,21, 0, 7,20.00,30.00,WinterDesignDay
8,-36.2
10,20956618.693057646
321,460712914.8748164
2,1, 1,21, 0, 7,30.00,40.00,WinterDesignDay
8,-36.2
10,20956618.693045405
321,460684192.6248417
2,1, 1,21, 0, 7,40.00,50.00,WinterDesignDay
8,-36.2
10,20956618.558836864
321,460647727.2799846
2,1, 1,21, 0, 7,50.00,60.00,WinterDesignDay
8,-36.2
10,20956618.558827878
321,460610188.47201
2,1, 1,21, 0, 7, 0.00,60.00,WinterDesignDay
555,17.999999901309516
595,18.84788466296546
635,17.99997648293831
675,18.204847912926089
715,17.99997559726745
2,1, 1,21, 0, 8, 0.00,10.00,WinterDesignDay
8,-36.2
10,26232535.24448125
321,512795644.5873803
2,1, 1,21, 0, 8,10.00,20.00,WinterDesignDay
8,-36.2
10,26232535.24447227
321,501919421.4493464
2,1, 1,21, 0, 8,20.00,30.00,WinterDesignDay
8,-36.2
10,26232535.24446329
321,483394598.85175976
2,1, 1,21, 0, 8,30.00,40.00,WinterDesignDay
8,-36.2
10,26232535.244454318
321,486723699.23015889
2,1, 1,21, 0, 8,40.00,50.00,WinterDesignDay
8,-36.2
10,26232535.37863267
321,487618213.0212584
2,1, 1,21, 0, 8,50.00,60.00,WinterDesignDay
8,-36.2
10,26232535.378620458
321,485650290.1569944
2,1, 1,21, 0, 8, 0.00,60.00,WinterDesignDay
555,17.999999552646704
595,20.31069383135052
635,17.99998232676275
675,19.98523080835451
715,17.999981696997926
2,1, 1,21, 0, 9, 0.00,10.00,WinterDesignDay
8,-36.2
10,27007817.084353646
321,619602795.3495323
2,1, 1,21, 0, 9,10.00,20.00,WinterDesignDay
8,-36.2
10,27005343.62432058
321,548963053.6811528
2,1, 1,21, 0, 9,20.00,30.00,WinterDesignDay
8,-36.2
10,26996687.04801172
321,513461191.4167346
2,1, 1,21, 0, 9,30.00,40.00,WinterDesignDay
8,-36.2
10,26996687.04801172
321,528342148.9016964
2,1, 1,21, 0, 9,40.00,50.00,WinterDesignDay
8,-36.2
10,26996687.04801172
321,517098781.55289569
2,1, 1,21, 0, 9,50.00,60.00,WinterDesignDay
8,-36.2
10,26996687.04801172
321,516812386.9928999
2,1, 1,21, 0, 9, 0.00,60.00,WinterDesignDay
555,19.943608372871429
595,21.949288236894036
635,19.94341123996383
675,21.863772811836794
715,19.94326753522718
2,1, 1,21, 0,10, 0.00,10.00,WinterDesignDay
8,-36.2
10,37910362.13664534
321,623341465.1178944
2,1, 1,21, 0,10,10.00,20.00,WinterDesignDay
8,-36.2
10,37895521.48121341
321,558761946.9205841
2,1, 1,21, 0,10,20.00,30.00,WinterDesignDay
8,-36.2
10,37895532.658524889
321,553713877.4999788
2,1, 1,21, 0,10,30.00,40.00,WinterDesignDay
8,-36.2
10,37895527.935033868
321,560290055.6369023
2,1, 1,21, 0,10,40.00,50.00,WinterDesignDay
8,-36.2
10,37921491.210140008
321,538859614.7415329
2,1, 1,21, 0,10,50.00,60.00,WinterDesignDay
8,-36.2
10,37895545.76088451
321,557575575.3876212
2,1, 1,21, 0,10, 0.00,60.00,WinterDesignDay
555,21.947469176492793
595,21.99975866758906
635,21.946194605150749
675,21.999555387229507
715,21.947587017241714
2,1, 1,21, 0,11, 0.00,10.00,WinterDesignDay
8,-36.2
10,46006011.04691004
321,529447237.0312429
2,1, 1,21, 0,11,10.00,20.00,WinterDesignDay
8,-36.2
10,46031937.65098331
321,532973808.8088402
2,1, 1,21, 0,11,20.00,30.00,WinterDesignDay
8,-36.2
10,46006026.877512987
321,534081489.68822756
2,1, 1,21, 0,11,30.00,40.00,WinterDesignDay
8,-36.2
10,46031937.65098331
321,524708279.95028617
2,1, 1,21, 0,11,40.00,50.00,WinterDesignDay
8,-36.2
10,46031937.65098331
321,540046407.1362556
2,1, 1,21, 0,11,50.00,60.00,WinterDesignDay
8,-36.2
10,46031937.65098331
321,516699571.3257263
2,1, 1,21, 0,11, 0.00,60.00,WinterDesignDay
555,22.000000488363196
595,21.999600248436527
635,22.000001332852759
675,21.999477182273269
715,21.99999996841832