Program Version,EnergyPlus, Version 8.9.0-eba93e8e1b, YMD=2019.04.04 17:58
1,5,Environment Title[],Latitude[deg],Longitude[deg],Time Zone[],Elevation[m]
2,8,Day of Simulation[],Month[],Day of Month[],DST Indicator[1=yes 0=no],Hour[],StartMinute[],EndMinute[],DayType
3,5,Cumulative Day of Simulation[],Month[],Day of Month[],DST Indicator[1=yes 0=no],DayType  ! When Daily Report Variables Requested
4,2,Cumulative Days of Simulation[],Month[]  ! When Monthly Report Variables Requested
5,1,Cumulative Days of Simulation[] ! When Run Period Report Variables Requested
6,1,Calendar Year of Simulation[] ! When Annual Report Variables Requested
7,9,Environment,Site Outdoor Air Drybulb Temperature [C] !Monthly [Value,Min,Day,Hour,Minute,Max,Day,Hour,Minute]
8,1,Environment,Site Outdoor Air Wetbulb Temperature [C] !TimeStep
357,1,WHOLEBUILDING-AUTOMOTIVE FACILITY ZN,Zone Air Temperature [C] !Hourly
358,7,WHOLEBUILDING-AUTOMOTIVE FACILITY ZN,Zone Air Relative Humidity [%] !Daily [Value,Min,Hour,Minute,Max,Hour,Minute]
397,1,WHOLEBUILDING-CONVENTION CENTRE ZN,Zone Air Temperature [C] !Hourly
398,7,WHOLEBUILDING-CONVENTION CENTRE ZN,Zone Air Relative Humidity [%] !Daily [Value,Min,Hour,Minute,Max,Hour,Minute]
437,1,WHOLEBUILDING-COURTHOUSE ZN,Zone Air Temperature [C] !Hourly
438,7,WHOLEBUILDING-COURTHOUSE ZN,Zone Air Relative Humidity [%] !Daily [Value,Min,Hour,Minute,Max,Hour,Minute]
477,1,WHOLEBUILDING-DINING - BAR/LOUNGE ZN,Zone Air Temperature [C] !Hourly
478,7,WHOLEBUILDING-DINING - BAR/LOUNGE ZN,Zone Air Relative Humidity [%] !Daily [Value,Min,Hour,Minute,Max,Hour,Minute]
517,1,WHOLEBUILDING-DINING - CAFETERIA ZN,Zone Air Temperature [C] !Hourly
518,7,WHOLEBUILDING-DINING - CAFETERIA ZN,Zone Air Relative Humidity [%] !Daily [Value,Min,Hour,Minute,Max,Hour,Minute]
10,1,Electricity:Facility [J] !TimeStep
668,1,DistrictCooling:Facility [J] !TimeStep
631,1,DistrictHeating:Facility [J] !TimeStep
End of Data Dictionary
1,FORT MCMURRAY AP ANN CLG .4% CONDNS DB=>MWB,  56.65,-111.22,  -7.00, 369.10
2,1, 7,21, 0, 1, 0.00,10.00,SummerDesignDay
8,14.218136923962174
10,26268531.381952056
631,0.0
668,490757.7188092476
2,1, 7,21, 0, 1,10.00,20.00,SummerDesignDay
8,14.171982153293495
10,26268531.381952056
631,0.0
668,107975.39985787796
2,1, 7,21, 0, 1,20.00,30.00,SummerDesignDay
8,14.125744780286427
10,26268531.381952056
631,0.0
668,0.0
2,1, 7,21, 0, 1,30.00,40.00,SummerDesignDay
8,14.079436086331978
10,26268531.381952056
631,0.0
668,0.0
2,1, 7,21, 0, 1,40.00,50.00,SummerDesignDay
8,14.033050387896898
10,26268531.381952056
631,0.0
668,0.0
2,1, 7,21, 0, 1,50.00,60.00,SummerDesignDay
8,13.986581233564835
10,26268531.381952056
631,0.0
668,0.0
2,1, 7,21, 0, 1, 0.00,60.00,SummerDesignDay
357,20.974283569245079
397,21.328834982385545
437,22.320074963418546
477,23.963547769916379
517,23.831180606724858
2,1, 7,21, 0, 2, 0.00,10.00,SummerDesignDay
8,13.95555882260429
10,16188615.271026103
631,0.0
668,0.0
2,1, 7,21, 0, 2,10.00,20.00,SummerDesignDay
8,13.924507755336454
10,16188615.271026103
631,0.0
668,0.0
2,1, 7,21, 0, 2,20.00,30.00,SummerDesignDay
8,13.893416042989206
10,16188615.271026103
631,0.0
668,0.0
2,1, 7,21, 0, 2,30.00,40.00,SummerDesignDay
8,13.862289589689029
10,16188615.271026103
631,0.0
668,0.0
2,1, 7,21, 0, 2,40.00,50.00,SummerDesignDay
8,13.831134407608739
10,16188615.271026103
631,0.0
668,0.0
2,1, 7,21, 0, 2,50.00,60.00,SummerDesignDay
8,13.799938415548118
10,16188615.271026103
631,0.0
668,0.0
2,1, 7,21, 0, 2, 0.00,60.00,SummerDesignDay
357,20.539333805934115
397,20.93030222888264
437,21.928514781009317
477,22.87709357486698
517,22.686112026332414
2,1, 7,21, 0, 3, 0.00,10.00,SummerDesignDay
8,13.776521671948676
10,6108699.160100142
631,0.0
668,0.0
2,1, 7,21, 0, 3,10.00,20.00,SummerDesignDay
8,13.753085235778466
10,6108699.160100142
631,0.0
668,0.0
2,1, 7,21, 0, 3,20.00,30.00,SummerDesignDay
8,13.729636002354969
10,6108699.160100142
631,0.0
668,0.0
2,1, 7,21, 0, 3,30.00,40.00,SummerDesignDay
8,13.706147375533054
10,6108699.160100142
631,0.0
668,0.0
2,1, 7,21, 0, 3,40.00,50.00,SummerDesignDay
8,13.682651961920304
10,6108699.160100142
631,0.0
668,0.0
2,1, 7,21, 0, 3,50.00,60.00,SummerDesignDay
8,13.659136670643687
10,6108699.160100142
631,0.0
668,0.0
2,1, 7,21, 0, 3, 0.00,60.00,SummerDesignDay
357,20.116926089825897
397,20.570000753964185
437,21.582961111320473
477,21.042653729583674
517,20.922895787411944
2,1, 7,21, 0, 4, 0.00,10.00,SummerDesignDay
8,13.63560137410855
10,6108699.160100142
631,0.0
668,0.0
2,1, 7,21, 0, 4,10.00,20.00,SummerDesignDay
8,13.612040802606578
10,6108699.160100142
631,0.0
668,0.0
2,1, 7,21, 0, 4,20.00,30.00,SummerDesignDay
8,13.58846620506876
10,6108699.160100142
631,0.0
668,0.0
2,1, 7,21, 0, 4,30.00,40.00,SummerDesignDay
8,13.56487178447336
10,6108699.160100142
631,0.0
668,0.0
2,1, 7,21, 0, 4,40.00,50.00,SummerDesignDay
8,13.541257354069103
10,6108699.160100142
631,0.0
668,0.0
2,1, 7,21, 0, 4,50.00,60.00,SummerDesignDay
8,13.517617463812285
10,6108699.160100142
631,0.0
668,0.0
2,1, 7,21, 0, 4, 0.00,60.00,SummerDesignDay
357,19.68900419866327
397,20.21962845120296
437,21.236450397520508
477,19.90912077906421
517,19.831400095477524
2,1, 7,21, 0, 5, 0.00,10.00,SummerDesignDay
8,13.50185415824011
10,6108699.160100142
631,0.0
668,0.0
2,1, 7,21, 0, 5,10.00,20.00,SummerDesignDay
8,13.486076034032447
10,6108699.160100142
631,0.0
668,0.0
2,1, 7,21, 0, 5,20.00,30.00,SummerDesignDay
8,13.470289340350983
10,6108699.160100142
631,0.0
668,0.0
2,1, 7,21, 0, 5,30.00,40.00,SummerDesignDay
8,13.454493322631063
10,6108699.160100142
631,0.0
668,0.0
2,1, 7,21, 0, 5,40.00,50.00,SummerDesignDay
8,13.438688835118548
10,6108699.160100142
631,0.0
668,0.0
2,1, 7,21, 0, 5,50.00,60.00,SummerDesignDay
8,13.422888173889437
10,6108699.160100142
631,0.0
668,0.0
2,1, 7,21, 0, 5, 0.00,60.00,SummerDesignDay
357,19.348117181175529
397,19.93391211278151
437,20.953692251820529
477,19.416646727158797
517,19.348457187956908
2,1, 7,21, 0, 6, 0.00,10.00,SummerDesignDay
8,13.438688835118548
10,6108699.160100142
631,0.0
668,0.0
2,1, 7,21, 0, 6,10.00,20.00,SummerDesignDay
8,13.454493322631063
10,6108699.160100142
631,0.0
668,0.0
2,1, 7,21, 0, 6,20.00,30.00,SummerDesignDay
8,13.470289340350983
10,6108699.160100142
631,0.0
668,0.0
2,1, 7,21, 0, 6,30.00,40.00,SummerDesignDay
8,13.486076034032447
10,6108699.160100142
631,0.0
668,0.0
2,1, 7,21, 0, 6,40.00,50.00,SummerDesignDay
8,13.50185415824011
10,6108699.160100142
631,0.0
668,0.0
2,1, 7,21, 0, 6,50.00,60.00,SummerDesignDay
8,13.517617463812285
10,6108699.160100142
631,0.0
668,0.0
2,1, 7,21, 0, 6, 0.00,60.00,SummerDesignDay
357,19.160523599225568
397,19.759442057398578
437,20.768119523741924
477,19.1951331971601
517,19.129846827712105
2,1, 7,21, 0, 7, 0.00,10.00,SummerDesignDay
8,13.572736920571789
10,6108699.160100142
631,0.0
668,0.0
2,1, 7,21, 0, 7,10.00,20.00,SummerDesignDay
8,13.627748229152554
10,6108699.160100142
631,0.0
668,0.0
2,1, 7,21, 0, 7,20.00,30.00,SummerDesignDay
8,13.682651961920304
10,6108699.160100142
631,0.0
668,0.0
2,1, 7,21, 0, 7,30.00,40.00,SummerDesignDay
8,13.737448093244995
10,6108699.160100142
631,0.0
668,0.0
2,1, 7,21, 0, 7,40.00,50.00,SummerDesignDay
8,13.792137011831216
10,6108699.160100142
631,0.0
668,0.0
2,1, 7,21, 0, 7,50.00,60.00,SummerDesignDay
8,13.846719282840333
10,6108699.160100142
631,0.0
668,0.0
2,1, 7,21, 0, 7, 0.00,60.00,SummerDesignDay
357,19.23682264812327
397,19.787400192317535
437,20.744685823131986
477,19.279007963273267
517,19.215260535192063
2,1, 7,21, 0, 8, 0.00,10.00,SummerDesignDay
8,13.978831900527043
10,9849293.028651163
631,34059614.592834208
668,0.0
2,1, 7,21, 0, 8,10.00,20.00,SummerDesignDay
8,14.110321014287419
10,9849293.028651163
631,0.0
668,0.0
2,1, 7,21, 0, 8,20.00,30.00,SummerDesignDay
8,14.241191509616986
10,9849293.028651163
631,2073106.4997715562
668,0.0
2,1, 7,21, 0, 8,30.00,40.00,SummerDesignDay
8,14.371447531304272
10,9849293.028651163
631,0.0
668,0.0
2,1, 7,21, 0, 8,40.00,50.00,SummerDesignDay
8,14.501093766564925
10,9849293.028651163
631,0.0
668,0.0
2,1, 7,21, 0, 8,50.00,60.00,SummerDesignDay
8,14.630134792273804
10,9849293.028651163
631,0.0
668,0.0
2,1, 7,21, 0, 8, 0.00,60.00,SummerDesignDay
357,20.12086191416493
397,20.234362277776858
437,22.540361068462518
477,19.820455761049045
517,19.75053578555277
2,1, 7,21, 0, 9, 0.00,10.00,SummerDesignDay
8,14.773641492809972
10,33400972.017035206
631,58267615.019786197
668,0.0
2,1, 7,21, 0, 9,10.00,20.00,SummerDesignDay
8,14.91640948124148
10,33400972.017035206
631,0.0
668,2150045.817210529
2,1, 7,21, 0, 9,20.00,30.00,SummerDesignDay
8,15.05843890714102
10,33400972.017035206
631,0.0
668,7523007.3048912719
2,1, 7,21, 0, 9,30.00,40.00,SummerDesignDay
8,15.199735893563798
10,33400972.017035206
631,0.0
668,12617544.47367631
2,1, 7,21, 0, 9,40.00,50.00,SummerDesignDay
8,15.340306256439395
10,33400972.017035206
631,0.0
668,12929894.164543834
2,1, 7,21, 0, 9,50.00,60.00,SummerDesignDay
8,15.48015101768072
10,33400972.017035206
631,0.0
668,13688905.119590849
2,1, 7,21, 0, 9, 0.00,60.00,SummerDesignDay
357,22.637632684266593
397,22.967741789083566
437,23.797005924048024
477,20.780599526346348
517,20.68960348628647
2,1, 7,21, 0,10, 0.00,10.00,SummerDesignDay
8,15.60467292907716
10,57869518.37690134
631,18639154.61352039
668,21185423.742235077
2,1, 7,21, 0,10,10.00,20.00,SummerDesignDay
8,15.72862731650033
10,57869518.37690134
631,0.0
668,35554303.89245428
2,1, 7,21, 0,10,20.00,30.00,SummerDesignDay
8,15.852017409284228
10,57869518.37690134
631,0.0
668,40964320.88545438
2,1, 7,21, 0,10,30.00,40.00,SummerDesignDay
8,15.974848118364367
10,57869518.37690134
631,0.0
668,43533272.66776404
2,1, 7,21, 0,10,40.00,50.00,SummerDesignDay
8,16.097123145563505
10,57869518.37690134
631,0.0
668,48562375.69132138
2,1, 7,21, 0,10,50.00,60.00,SummerDesignDay
8,16.218846351168599
10,57869518.37690134
631,0.0
668,54980154.705752927
2,1, 7,21, 0,10, 0.00,60.00,SummerDesignDay
357,23.873188196790126
397,23.97333107931911
437,23.999999999901929
477,23.21093287594176
517,23.169422457546845
2,1, 7,21, 0,11, 0.00,10.00,SummerDesignDay
8,16.325793027093189
10,67049441.97708709
631,0.0
668,84990727.37693407
2,1, 7,21, 0,11,10.00,20.00,SummerDesignDay
8,16.432322158488288
10,67049441.97708709
631,0.0
668,82833054.26240009
2,1, 7,21, 0,11,20.00,30.00,SummerDesignDay
8,16.538424180249178
10,67049441.97708709
631,0.0
668,87269972.91226626
2,1, 7,21, 0,11,30.00,40.00,SummerDesignDay
8,16.644108396469087
10,67049441.97708709
631,0.0
668,91522398.73974973
2,1, 7,21, 0,11,40.00,50.00,SummerDesignDay
8,16.749376736593655
10,67049441.97708709
631,0.0
668,94970102.34613368
2,1, 7,21, 0,11,50.00,60.00,SummerDesignDay
8,16.854232613237156
10,67049441.97708709
631,0.0
668,98131532.61591819
2,1, 7,21, 0,11, 0.00,60.00,SummerDesignDay
357,23.999999999993255
397,24.000000000000019
437,24.0
477,23.999928041222576
517,23.99983913561175
2,1, 7,21, 0,12, 0.00,10.00,SummerDesignDay
8,16.92390823520069
10,72089400.03255007
631,0.0
668,107670019.83508644
2,1, 7,21, 0,12,10.00,20.00,SummerDesignDay
8,16.99340178950456
10,72089400.03255007
631,0.0
668,110168787.4129826
2,1, 7,21, 0,12,20.00,30.00,SummerDesignDay
8,17.06272006743463
10,72089400.03255007
631,0.0
668,111911904.96470452
2,1, 7,21, 0,12,30.00,40.00,SummerDesignDay
8,17.131853229172639
10,72089400.03255007
631,0.0
668,113687383.22409675
2,1, 7,21, 0,12,40.00,50.00,SummerDesignDay
8,17.200807172194087
10,72089400.03255007
631,0.0
668,115369549.98794686
2,1, 7,21, 0,12,50.00,60.00,SummerDesignDay
8,17.269582116758607
10,72089400.03255007
631,0.0
668,117009729.83084944
2,1, 7,21, 0,12, 0.00,60.00,SummerDesignDay
357,24.000000000000026
397,24.000000000000019
437,24.00000000000003
477,23.999999999972688
517,23.99999999993675
2,1, 7,21, 0,13, 0.00,10.00,SummerDesignDay
8,17.32447360221357
10,72089400.03255007
631,0.0
668,123731462.28947576
2,1, 7,21, 0,13,10.00,20.00,SummerDesignDay
8,17.379251291230806
10,72089400.03255007
631,0.0
668,125255860.02809444
2,1, 7,21, 0,13,20.00,30.00,SummerDesignDay
8,17.433921312061729
10,72089400.03255007
631,0.0
668,126458914.95862146
2,1, 7,21, 0,13,30.00,40.00,SummerDesignDay
8,17.488473222557489
10,72089400.03255007
631,0.0
668,127694583.27730324
2,1, 7,21, 0,13,40.00,50.00,SummerDesignDay
8,17.542913447755134
10,72089400.03255007
631,0.0
668,128916079.16753215
2,1, 7,21, 0,13,50.00,60.00,SummerDesignDay
8,17.59724609886134
10,72089400.03255007
631,0.0
668,130109737.97350493
2,1, 7,21, 0,13, 0.00,60.00,SummerDesignDay
357,24.000000000000015
397,24.000000000000033
437,23.99999999999999
477,24.0
517,24.00000000000003
2,1, 7,21, 0,14, 0.00,10.00,SummerDesignDay
8,17.6311450462694
10,72089400.03255007
631,0.0
668,129539546.87808582
2,1, 7,21, 0,14,10.00,20.00,SummerDesignDay
8,17.665000449016245
10,72089400.03255007
631,0.0
668,130204642.88600806
2,1, 7,21, 0,14,20.00,30.00,SummerDesignDay
8,17.698812743128934
10,72089400.03255007
631,0.0
668,130931889.52454357
2,1, 7,21, 0,14,30.00,40.00,SummerDesignDay
8,17.732582050940107
10,72089400.03255007
631,0.0
668,131652518.56829308
2,1, 7,21, 0,14,40.00,50.00,SummerDesignDay
8,17.766307345121004
10,72089400.03255007
631,0.0
668,132372691.09750867
2,1, 7,21, 0,14,50.00,60.00,SummerDesignDay
8,17.79999023167558
10,72089400.03255007
631,0.0
668,133095023.4808883
2,1, 7,21, 0,14, 0.00,60.00,SummerDesignDay
357,23.999999999999987
397,24.00000000000001
437,24.000000000000019
477,24.000000000000019
517,24.00000000000001
2,1, 7,21, 0,15, 0.00,10.00,SummerDesignDay
8,17.79999023167558
10,72089400.03255007
631,0.0
668,129335608.65510416
2,1, 7,21, 0,15,10.00,20.00,SummerDesignDay
8,17.79999023167558
10,72089400.03255007
631,0.0
668,129232794.97813033
2,1, 7,21, 0,15,20.00,30.00,SummerDesignDay
8,17.79999023167558
10,72089400.03255007
631,0.0
668,129333433.67434223
2,1, 7,21, 0,15,30.00,40.00,SummerDesignDay
8,17.79999023167558
10,72089400.03255007
631,0.0
668,129416400.80691782
2,1, 7,21, 0,15,40.00,50.00,SummerDesignDay
8,17.79999023167558
10,72089400.03255007
631,0.0
668,129484763.51071143
2,1, 7,21, 0,15,50.00,60.00,SummerDesignDay
8,17.79999023167558
10,72089400.03255007
631,0.0
668,129539608.73339552
2,1, 7,21, 0,15, 0.00,60.00,SummerDesignDay
357,24.000000000000015
397,24.000000000000015
437,24.00000000000003
477,24.00000000000001
517,24.000000000000015
2,1, 7,21, 0,16, 0.00,10.00,SummerDesignDay
8,17.759562446305357
10,72089400.03255007
631,0.0
668,126409054.33753982
2,1, 7,21, 0,16,10.00,20.00,SummerDesignDay
8,17.71907809634183
10,72089400.03255007
631,0.0
668,125471949.85512954
2,1, 7,21, 0,16,20.00,30.00,SummerDesignDay
8,17.67853788661001
10,72089400.03255007
631,0.0
668,124643357.08899054
2,1, 7,21, 0,16,30.00,40.00,SummerDesignDay
8,17.63791796367351
10,72089400.03255007
631,0.0
668,123795466.76558763
2,1, 7,21, 0,16,40.00,50.00,SummerDesignDay
8,17.59724609886134
10,72089400.03255007
631,0.0
668,122942261.90693206
2,1, 7,21, 0,16,50.00,60.00,SummerDesignDay
8,17.55650676726033
10,72089400.03255007
631,0.0
668,122086674.25363666
2,1, 7,21, 0,16, 0.00,60.00,SummerDesignDay
357,24.00000000000001
397,24.000000000000019
437,24.000000000000026
477,23.999999999999987
517,24.00000000000004
2,1, 7,21, 0,17, 0.00,10.00,SummerDesignDay
8,17.50209486331892
10,72089400.03255007
631,0.0
668,121638335.98740337
2,1, 7,21, 0,17,10.00,20.00,SummerDesignDay
8,17.447570789624618
10,72089400.03255007
631,0.0
668,120552454.9923025
2,1, 7,21, 0,17,20.00,30.00,SummerDesignDay
8,17.392929544208135
10,72089400.03255007
631,0.0
668,119432865.10670725
2,1, 7,21, 0,17,30.00,40.00,SummerDesignDay
8,17.33818013976614
10,72089400.03255007
631,0.0
668,118314416.36615308
2,1, 7,21, 0,17,40.00,50.00,SummerDesignDay
8,17.283317298559309
10,72089400.03255007
631,0.0
668,117190833.34522346
2,1, 7,21, 0,17,50.00,60.00,SummerDesignDay
8,17.22833552437677
10,72089400.03255007
631,0.0
668,116061144.01065049
2,1, 7,21, 0,17, 0.00,60.00,SummerDesignDay
357,24.000000000000033
397,24.000000000000019
437,24.00000000000001
477,23.999999999999998
517,24.000000000000026
2,1, 7,21, 0,18, 0.00,10.00,SummerDesignDay
8,17.159453019160176
10,70818160.61253217
631,0.0
668,112601051.58060473
2,1, 7,21, 0,18,10.00,20.00,SummerDesignDay
8,17.090391773337136
10,70818160.61253217
631,0.0
668,110955702.68298516
2,1, 7,21, 0,18,20.00,30.00,SummerDesignDay
8,17.021151077964786
10,70818160.61253217
631,0.0
668,109472727.76616889
2,1, 7,21, 0,18,30.00,40.00,SummerDesignDay
8,16.951729380464653
10,70818160.61253217
631,0.0
668,107958586.86681319
2,1, 7,21, 0,18,40.00,50.00,SummerDesignDay
8,16.882126503829249
10,70818160.61253217
631,0.0
668,106454670.88561505
2,1, 7,21, 0,18,50.00,60.00,SummerDesignDay
8,16.812341807494034
10,70818160.61253217
631,0.0
668,104962739.49023386
2,1, 7,21, 0,18, 0.00,60.00,SummerDesignDay
357,24.0
397,24.0
437,24.0
477,24.000000000000005
517,24.00000000000001
2,1, 7,21, 0,19, 0.00,10.00,SummerDesignDay
8,16.707321072823203
10,54404547.21664652
631,0.0
668,86325462.94387493
2,1, 7,21, 0,19,10.00,20.00,SummerDesignDay
8,16.601881826644556
10,54404547.21664652
631,0.0
668,82330880.69991195
2,1, 7,21, 0,19,20.00,30.00,SummerDesignDay
8,16.496030555252849
10,54404547.21664652
631,0.0
668,79455126.45593699
2,1, 7,21, 0,19,30.00,40.00,SummerDesignDay
8,16.389760181474104
10,54404547.21664652
631,0.0
668,76554322.34442745
2,1, 7,21, 0,19,40.00,50.00,SummerDesignDay
8,16.283067654262039
10,54404547.21664652
631,0.0
668,73778833.80479819
2,1, 7,21, 0,19,50.00,60.00,SummerDesignDay
8,16.17595057957811
10,54404547.21664652
631,0.0
668,71071119.86134726
2,1, 7,21, 0,19, 0.00,60.00,SummerDesignDay
357,24.000000000000015
397,24.00000000000001
437,24.0
477,24.0
517,23.99999999999999
2,1, 7,21, 0,20, 0.00,10.00,SummerDesignDay
8,16.097123145563505
10,38733427.641334448
631,0.0
668,54344716.95931251
2,1, 7,21, 0,20,10.00,20.00,SummerDesignDay
8,16.018070242471564
10,38733427.641334448
631,0.0
668,52569042.749896559
2,1, 7,21, 0,20,20.00,30.00,SummerDesignDay
8,15.938779752340516
10,38733427.641334448
631,0.0
668,51104310.35044958
2,1, 7,21, 0,20,30.00,40.00,SummerDesignDay
8,15.85926152575189
10,38733427.641334448
631,0.0
668,49636835.396367099
2,1, 7,21, 0,20,40.00,50.00,SummerDesignDay
8,15.779503718563929
10,38733427.641334448
631,0.0
668,48228974.87211029
2,1, 7,21, 0,20,50.00,60.00,SummerDesignDay
8,15.699515709672767
10,38733427.641334448
631,0.0
668,46862293.231118317
2,1, 7,21, 0,20, 0.00,60.00,SummerDesignDay
357,23.930399007258484
397,24.00000000000001
437,24.000000000000005
477,24.000000000000058
517,24.000000000000019
2,1, 7,21, 0,21, 0.00,10.00,SummerDesignDay
8,15.63389147320404
10,37147190.84300148
631,0.0
668,44663425.48165001
2,1, 7,21, 0,21,10.00,20.00,SummerDesignDay
8,15.56810827419793
10,37147190.84300148
631,0.0
668,43364013.64035225
2,1, 7,21, 0,21,20.00,30.00,SummerDesignDay
8,15.502170882753524
10,37147190.84300148
631,0.0
668,42171243.806937839
2,1, 7,21, 0,21,30.00,40.00,SummerDesignDay
8,15.436068032613852
10,37147190.84300148
631,0.0
668,40861574.32811936
2,1, 7,21, 0,21,40.00,50.00,SummerDesignDay
8,15.369804371206009
10,37147190.84300148
631,0.0
668,39543938.72108617
2,1, 7,21, 0,21,50.00,60.00,SummerDesignDay
8,15.303384603594449
10,37147190.84300148
631,0.0
668,38145236.24603124
2,1, 7,21, 0,21, 0.00,60.00,SummerDesignDay
357,23.32952390866349
397,24.0
437,24.0
477,24.000000000000019
517,24.000000000000033
2,1, 7,21, 0,22, 0.00,10.00,SummerDesignDay
8,15.236797685071274
10,26904151.091961005
631,0.0
668,27099878.913535835
2,1, 7,21, 0,22,10.00,20.00,SummerDesignDay
8,15.170047891787942
10,26904151.091961005
631,0.0
668,26102175.58678472
2,1, 7,21, 0,22,20.00,30.00,SummerDesignDay
8,15.103134826860483
10,26904151.091961005
631,0.0
668,25091722.787291968
2,1, 7,21, 0,22,30.00,40.00,SummerDesignDay
8,15.036063385178485
10,26904151.091961005
631,0.0
668,24084373.916375489
2,1, 7,21, 0,22,40.00,50.00,SummerDesignDay
8,14.968821767219835
10,26904151.091961005
631,0.0
668,23081712.526420259
2,1, 7,21, 0,22,50.00,60.00,SummerDesignDay
8,14.90141525878635
10,26904151.091961005
631,0.0
668,22083647.54388944
2,1, 7,21, 0,22, 0.00,60.00,SummerDesignDay
357,22.674613545246645
397,23.342580650191043
437,23.89707394564995
477,24.00000000000004
517,24.000000000000005
2,1, 7,21, 0,23, 0.00,10.00,SummerDesignDay
8,14.848873673278373
10,26904151.091961005
631,0.0
668,15406317.035189162
2,1, 7,21, 0,23,10.00,20.00,SummerDesignDay
8,14.796237168136719
10,26904151.091961005
631,0.0
668,14385146.643163085
2,1, 7,21, 0,23,20.00,30.00,SummerDesignDay
8,14.743494321455645
10,26904151.091961005
631,0.0
668,13581875.26557923
2,1, 7,21, 0,23,30.00,40.00,SummerDesignDay
8,14.690649975253665
10,26904151.091961005
631,0.0
668,12761611.90169328
2,1, 7,21, 0,23,40.00,50.00,SummerDesignDay
8,14.637704281233117
10,26904151.091961005
631,0.0
668,11957311.464477648
2,1, 7,21, 0,23,50.00,60.00,SummerDesignDay
8,14.584656914839757
10,26904151.091961005
631,0.0
668,11161662.10492053
2,1, 7,21, 0,23, 0.00,60.00,SummerDesignDay
357,22.041513903436614
397,22.423828792760835
437,23.51343460655667
477,24.0
517,24.00000000000001
2,1, 7,21, 0,24, 0.00,10.00,SummerDesignDay
8,14.531507212058875
10,26268531.381952056
631,0.0
668,6454517.153881689
2,1, 7,21, 0,24,10.00,20.00,SummerDesignDay
8,14.47825496413355
10,26268531.381952056
631,0.0
668,5517469.3983378079
2,1, 7,21, 0,24,20.00,30.00,SummerDesignDay
8,14.4249000133173
10,26268531.381952056
631,0.0
668,4724104.977352524
2,1, 7,21, 0,24,30.00,40.00,SummerDesignDay
8,14.371447531304272
10,26268531.381952056
631,0.0
668,3918786.804463401
2,1, 7,21, 0,24,40.00,50.00,SummerDesignDay
8,14.31788619902223
10,26268531.381952056
631,0.0
668,3124754.086677539
2,1, 7,21, 0,24,50.00,60.00,SummerDesignDay
8,14.264220970176066
10,26268531.381952056
631,0.0
668,2337221.0109297048
2,1, 7,21, 0,24, 0.00,60.00,SummerDesignDay
357,21.485233933737495
397,21.82127089809629
437,22.9012864048608
477,24.000000000000005
517,23.999999999999998
3,1, 7,21, 0,SummerDesignDay
358,49.75193528915103,42.605878420394429,15,60,60.806263893022229, 6,60
398,50.36276453760752,44.899306129459628,10,60,58.61458936849754, 6,60
438,47.58510949332958,43.27309610695594,21,40,55.13911460948443, 7,10
478,49.15761708668265,41.6319270358005,17,60,60.696812927596599, 6,60
518,49.3663461586306,41.632097033966569,17,60,60.942442177142599, 6,60
4,1, 7
7,22.2505,16.5,21, 5,60,28.9,21,14,60
1,FORT MCMURRAY AP ANN HTG 99.6% CONDNS DB,  56.65,-111.22,  -7.00, 369.10
2,1, 1,21, 0, 1, 0.00,10.00,WinterDesignDay
8,-36.2
10,26268531.381952056
631,359429472.2184712
668,0.0
2,1, 1,21, 0, 1,10.00,20.00,WinterDesignDay
8,-36.2
10,26268531.381952056
631,359553235.4437735
668,0.0
2,1, 1,21, 0, 1,20.00,30.00,WinterDesignDay
8,-36.2
10,26268531.381952056
631,359586892.7065826
668,0.0
2,1, 1,21, 0, 1,30.00,40.00,WinterDesignDay
8,-36.2
10,26268531.381952056
631,359628131.170049
668,0.0
2,1, 1,21, 0, 1,40.00,50.00,WinterDesignDay
8,-36.2
10,26268531.381952056
631,359666550.6564078
668,0.0
2,1, 1,21, 0, 1,50.00,60.00,WinterDesignDay
8,-36.2
10,26268531.381952056
631,359699662.923517
668,0.0
2,1, 1,21, 0, 1, 0.00,60.00,WinterDesignDay
357,18.000000000000008
397,18.000000000000008
437,18.00000000000001
477,22.00000000000001
517,22.00000000000001
2,1, 1,21, 0, 2, 0.00,10.00,WinterDesignDay
8,-36.2
10,16188615.271026103
631,369545670.87045267
668,0.0
2,1, 1,21, 0, 2,10.00,20.00,WinterDesignDay
8,-36.2
10,16188615.271026103
631,370110903.8719795
668,0.0
2,1, 1,21, 0, 2,20.00,30.00,WinterDesignDay
8,-36.2
10,16188615.271026103
631,370357813.5996453
668,0.0
2,1, 1,21, 0, 2,30.00,40.00,WinterDesignDay
8,-36.2
10,16188615.271026103
631,370574402.41375526
668,0.0
2,1, 1,21, 0, 2,40.00,50.00,WinterDesignDay
8,-36.2
10,16188615.271026103
631,370744241.2105403
668,0.0
2,1, 1,21, 0, 2,50.00,60.00,WinterDesignDay
8,-36.2
10,16188615.271026103
631,370873705.90082368
668,0.0
2,1, 1,21, 0, 2, 0.00,60.00,WinterDesignDay
357,18.000000000000008
397,18.000000000000005
437,18.000000000000005
477,22.000000000000005
517,22.0
2,1, 1,21, 0, 3, 0.00,10.00,WinterDesignDay
8,-36.2
10,6108699.160100142
631,290786741.27699968
668,0.0
2,1, 1,21, 0, 3,10.00,20.00,WinterDesignDay
8,-36.2
10,6108699.160100142
631,331947633.1203602
668,0.0
2,1, 1,21, 0, 3,20.00,30.00,WinterDesignDay
8,-36.2
10,6108699.160100142
631,350756670.99499729
668,0.0
2,1, 1,21, 0, 3,30.00,40.00,WinterDesignDay
8,-36.2
10,6108699.160100142
631,352919976.55671516
668,0.0
2,1, 1,21, 0, 3,40.00,50.00,WinterDesignDay
8,-36.2
10,6108699.160100142
631,357640973.4774606
668,0.0
2,1, 1,21, 0, 3,50.00,60.00,WinterDesignDay
8,-36.2
10,6108699.160100142
631,358438249.21600869
668,0.0
2,1, 1,21, 0, 3, 0.00,60.00,WinterDesignDay
357,18.000000000000005
397,18.000000000000008
437,18.000000000000005
477,18.120449551595816
517,18.119501289012886
2,1, 1,21, 0, 4, 0.00,10.00,WinterDesignDay
8,-36.2
10,6108699.160100142
631,359012389.9012593
668,0.0
2,1, 1,21, 0, 4,10.00,20.00,WinterDesignDay
8,-36.2
10,6108699.160100142
631,359460689.0424509
668,0.0
2,1, 1,21, 0, 4,20.00,30.00,WinterDesignDay
8,-36.2
10,6108699.160100142
631,359801438.28619018
668,0.0
2,1, 1,21, 0, 4,30.00,40.00,WinterDesignDay
8,-36.2
10,6108699.160100142
631,360061800.550461
668,0.0
2,1, 1,21, 0, 4,40.00,50.00,WinterDesignDay
8,-36.2
10,6108699.160100142
631,360275241.6926985
668,0.0
2,1, 1,21, 0, 4,50.00,60.00,WinterDesignDay
8,-36.2
10,6108699.160100142
631,360436388.88501158
668,0.0
2,1, 1,21, 0, 4, 0.00,60.00,WinterDesignDay
357,18.000000000000005
397,18.0
437,18.000000000000008
477,18.00000000001594
517,18.00000000001596
2,1, 1,21, 0, 5, 0.00,10.00,WinterDesignDay
8,-36.2
10,6108699.160100142
631,360569566.02231135
668,0.0
2,1, 1,21, 0, 5,10.00,20.00,WinterDesignDay
8,-36.2
10,6108699.160100142
631,360668854.9022057
668,0.0
2,1, 1,21, 0, 5,20.00,30.00,WinterDesignDay
8,-36.2
10,6108699.160100142
631,360752756.7513864
668,0.0
2,1, 1,21, 0, 5,30.00,40.00,WinterDesignDay
8,-36.2
10,6108699.160100142
631,360824596.8768423
668,0.0
2,1, 1,21, 0, 5,40.00,50.00,WinterDesignDay
8,-36.2
10,6108699.160100142
631,360874040.27392306
668,0.0
2,1, 1,21, 0, 5,50.00,60.00,WinterDesignDay
8,-36.2
10,6108699.160100142
631,360916478.1256179
668,0.0
2,1, 1,21, 0, 5, 0.00,60.00,WinterDesignDay
357,18.000000000000005
397,18.000000000000005
437,18.000000000000005
477,18.0
517,18.000000000000005
2,1, 1,21, 0, 6, 0.00,10.00,WinterDesignDay
8,-36.2
10,6108699.160100142
631,360955002.3021207
668,0.0
2,1, 1,21, 0, 6,10.00,20.00,WinterDesignDay
8,-36.2
10,6108699.160100142
631,360988186.1678312
668,0.0
2,1, 1,21, 0, 6,20.00,30.00,WinterDesignDay
8,-36.2
10,6108699.160100142
631,361016239.47559347
668,0.0
2,1, 1,21, 0, 6,30.00,40.00,WinterDesignDay
8,-36.2
10,6108699.160100142
631,361039820.43675526
668,0.0
2,1, 1,21, 0, 6,40.00,50.00,WinterDesignDay
8,-36.2
10,6108699.160100142
631,361059638.3658182
668,0.0
2,1, 1,21, 0, 6,50.00,60.00,WinterDesignDay
8,-36.2
10,6108699.160100142
631,361076332.00199666
668,0.0
2,1, 1,21, 0, 6, 0.00,60.00,WinterDesignDay
357,18.0
397,18.000000000000005
437,18.000000000000005
477,18.000000000000005
517,18.0
2,1, 1,21, 0, 7, 0.00,10.00,WinterDesignDay
8,-36.2
10,6108699.160100142
631,386922746.49146696
668,0.0
2,1, 1,21, 0, 7,10.00,20.00,WinterDesignDay
8,-36.2
10,6108699.160100142
631,342055935.0057454
668,0.0
2,1, 1,21, 0, 7,20.00,30.00,WinterDesignDay
8,-36.2
10,6108699.160100142
631,372415582.2564398
668,0.0
2,1, 1,21, 0, 7,30.00,40.00,WinterDesignDay
8,-36.2
10,6108699.160100142
631,364298024.66072097
668,0.0
2,1, 1,21, 0, 7,40.00,50.00,WinterDesignDay
8,-36.2
10,6108699.160100142
631,364587605.96391609
668,0.0
2,1, 1,21, 0, 7,50.00,60.00,WinterDesignDay
8,-36.2
10,6108699.160100142
631,364468345.52860167
668,0.0
2,1, 1,21, 0, 7, 0.00,60.00,WinterDesignDay
357,18.0
397,18.000000000000005
437,20.02688075434804
477,18.000000000000005
517,18.0
2,1, 1,21, 0, 8, 0.00,10.00,WinterDesignDay
8,-36.2
10,9849293.028651163
631,446388146.4520871
668,0.0
2,1, 1,21, 0, 8,10.00,20.00,WinterDesignDay
8,-36.2
10,9849293.028651163
631,308512574.4437132
668,0.0
2,1, 1,21, 0, 8,20.00,30.00,WinterDesignDay
8,-36.2
10,9849293.028651163
631,398328802.43227747
668,0.0
2,1, 1,21, 0, 8,30.00,40.00,WinterDesignDay
8,-36.2
10,9849293.028651163
631,375488531.65224876
668,0.0
2,1, 1,21, 0, 8,40.00,50.00,WinterDesignDay
8,-36.2
10,9849293.028651163
631,375512751.3560709
668,0.0
2,1, 1,21, 0, 8,50.00,60.00,WinterDesignDay
8,-36.2
10,9849293.028651163
631,375017110.39158478
668,0.0
2,1, 1,21, 0, 8, 0.00,60.00,WinterDesignDay
357,20.003218655304477
397,20.010031757225176
437,22.027384395047379
477,18.000000000000005
517,18.0
2,1, 1,21, 0, 9, 0.00,10.00,WinterDesignDay
8,-36.2
10,33400972.017035206
631,466585649.3067666
668,0.0
2,1, 1,21, 0, 9,10.00,20.00,WinterDesignDay
8,-36.2
10,33400972.017035206
631,292696222.25635668
668,0.0
2,1, 1,21, 0, 9,20.00,30.00,WinterDesignDay
8,-36.2
10,33400972.017035206
631,401399440.2950642
668,0.0
2,1, 1,21, 0, 9,30.00,40.00,WinterDesignDay
8,-36.2
10,33400972.017035206
631,374500011.48801
668,0.0
2,1, 1,21, 0, 9,40.00,50.00,WinterDesignDay
8,-36.2
10,33400972.017035206
631,373679948.9767133
668,0.0
2,1, 1,21, 0, 9,50.00,60.00,WinterDesignDay
8,-36.2
10,33400972.017035206
631,372745393.5688894
668,0.0
2,1, 1,21, 0, 9, 0.00,60.00,WinterDesignDay
357,22.002845243958235
397,22.01201071516991
437,22.000000000000015
477,20.001300274602607
517,20.00125773018661
2,1, 1,21, 0,10, 0.00,10.00,WinterDesignDay
8,-36.2
10,57869518.37690134
631,401536403.94726446
668,0.0
2,1, 1,21, 0,10,10.00,20.00,WinterDesignDay
8,-36.2
10,57869518.37690134
631,321101162.1587854
668,0.0
2,1, 1,21, 0,10,20.00,30.00,WinterDesignDay
8,-36.2
10,57869518.37690134
631,369564403.3179193
668,0.0
2,1, 1,21, 0,10,30.00,40.00,WinterDesignDay
8,-36.2
10,57869518.37690134
631,357134094.34296968
668,0.0
2,1, 1,21, 0,10,40.00,50.00,WinterDesignDay
8,-36.2
10,57869518.37690134
631,356130242.3985017
668,0.0
2,1, 1,21, 0,10,50.00,60.00,WinterDesignDay
8,-36.2
10,57869518.37690134
631,355260875.5801727
668,0.0
2,1, 1,21, 0,10, 0.00,60.00,WinterDesignDay
357,22.00000000000001
397,22.000000000000019
437,22.000000000000019
477,22.001004778103498