Program Version,EnergyPlus, Version 8.9.0-eba93e8e1b, YMD=2019.03.28 14:30
1,5,Environment Title[],Latitude[deg],Longitude[deg],Time Zone[],Elevation[m]
2,8,Day of Simulation[],Month[],Day of Month[],DST Indicator[1=yes 0=no],Hour[],StartMinute[],EndMinute[],DayType
3,5,Cumulative Day of Simulation[],Month[],Day of Month[],DST Indicator[1=yes 0=no],DayType  ! When Daily Report Variables Requested
4,2,Cumulative Days of Simulation[],Month[]  ! When Monthly Report Variables Requested
5,1,Cumulative Days of Simulation[] ! When Run Period Report Variables Requested
6,1,Calendar Year of Simulation[] ! When Annual Report Variables Requested
7,9,Environment,Site Outdoor Air Drybulb Temperature [C] !Monthly [Value,Min,Day,Hour,Minute,Max,Day,Hour,Minute]
8,1,Environment,Site Outdoor Air Wetbulb Temperature [C] !TimeStep
1112,1,SP-MUSEUM RESTORATION ROOM-SPACE FUNCTION SYS-2 FLR-4 SCH-A HPLCMT-CORE ZN,Zone Air Temperature [C] !Hourly
1113,7,SP-MUSEUM RESTORATION ROOM-SPACE FUNCTION SYS-2 FLR-4 SCH-A HPLCMT-CORE ZN,Zone Air Relative Humidity [%] !Daily [Value,Min,Hour,Minute,Max,Hour,Minute]
1152,1,SP-POST OFFICE SORTING AREA-SPACE FUNCTION SYS-6 FLR-3 SCH-A HPLCMT-NORTH ZN,Zone Air Temperature [C] !Hourly
1153,7,SP-POST OFFICE SORTING AREA-SPACE FUNCTION SYS-6 FLR-3 SCH-A HPLCMT-NORTH ZN,Zone Air Relative Humidity [%] !Daily [Value,Min,Hour,Minute,Max,Hour,Minute]
1192,1,SP-RELIGIOUS BUILDING FELLOWSHIP HALL-SPACE FUNCTION SYS-3 FLR-4 SCH-C HPLCMT-SOUTH ZN,Zone Air Temperature [C] !Hourly
1193,7,SP-RELIGIOUS BUILDING FELLOWSHIP HALL-SPACE FUNCTION SYS-3 FLR-4 SCH-C HPLCMT-SOUTH ZN,Zone Air Relative Humidity [%] !Daily [Value,Min,Hour,Minute,Max,Hour,Minute]
1232,1,SP-RELIGIOUS BUILDING WORSHIP/PULPIT/CHOIR AREA-SPACE FUNCTION SYS-3 FLR-3 SCH-I HPLCMT-SOUTH ZN,Zone Air Temperature [C] !Hourly
1233,7,SP-RELIGIOUS BUILDING WORSHIP/PULPIT/CHOIR AREA-SPACE FUNCTION SYS-3 FLR-3 SCH-I HPLCMT-SOUTH ZN,Zone Air Relative Humidity [%] !Daily [Value,Min,Hour,Minute,Max,Hour,Minute]
1272,1,SP-RETAIL FACILITY DRESSING/FITTING ROOM-SPACE FUNCTION SYS-6 FLR-3 SCH-C HPLCMT-WEST ZN,Zone Air Temperature [C] !Hourly
1273,7,SP-RETAIL FACILITY DRESSING/FITTING ROOM-SPACE FUNCTION SYS-6 FLR-3 SCH-C HPLCMT-WEST ZN,Zone Air Relative Humidity [%] !Daily [Value,Min,Hour,Minute,Max,Hour,Minute]
1312,1,SP-RETAIL FACILITY MALL CONCOURSE-SPACE FUNCTION SYS-6 FLR-1 SCH-C HPLCMT-WEST ZN,Zone Air Temperature [C] !Hourly
1313,7,SP-RETAIL FACILITY MALL CONCOURSE-SPACE FUNCTION SYS-6 FLR-1 SCH-C HPLCMT-WEST ZN,Zone Air Relative Humidity [%] !Daily [Value,Min,Hour,Minute,Max,Hour,Minute]
1352,1,SP-SPACE DESIGNED TO ANSI/IES RP-28 CHAPEL (USED PRIMARILY BY RESIDENTS)-SPACE FUNCTION SYS-3 FLR-4 SCH-I HPLCMT-WEST ZN,Zone Air Temperature [C] !Hourly
1353,7,SP-SPACE DESIGNED TO ANSI/IES RP-28 CHAPEL (USED PRIMARILY BY RESIDENTS)-SPACE FUNCTION SYS-3 FLR-4 SCH-I HPLCMT-WEST ZN,Zone Air Relative Humidity [%] !Daily [Value,Min,Hour,Minute,Max,Hour,Minute]
1392,1,SP-SPACE DESIGNED TO ANSI/IES RP-28 RECREATION ROOM (USED PRIMARILY BY RESIDENTS)-SPACE FUNCTION SYS-3 FLR-2 SCH-B HPLCMT-NORTH ZN,Zone Air Temperature [C] !Hourly
1393,7,SP-SPACE DESIGNED TO ANSI/IES RP-28 RECREATION ROOM (USED PRIMARILY BY RESIDENTS)-SPACE FUNCTION SYS-3 FLR-2 SCH-B HPLCMT-NORTH ZN,Zone Air Relative Humidity [%] !Daily [Value,Min,Hour,Minute,Max,Hour,Minute]
1432,1,SP-SPORTS ARENA PLAYING AREA CLASS I FACILITY(4)-SPACE FUNCTION SYS-6 FLR-2 SCH-B HPLCMT-EAST ZN,Zone Air Temperature [C] !Hourly
1433,7,SP-SPORTS ARENA PLAYING AREA CLASS I FACILITY(4)-SPACE FUNCTION SYS-6 FLR-2 SCH-B HPLCMT-EAST ZN,Zone Air Relative Humidity [%] !Daily [Value,Min,Hour,Minute,Max,Hour,Minute]
1472,1,SP-SPORTS ARENA PLAYING AREA CLASS II FACILITY(4)-SPACE FUNCTION SYS-6 FLR-2 SCH-B HPLCMT-CORE ZN,Zone Air Temperature [C] !Hourly
1473,7,SP-SPORTS ARENA PLAYING AREA CLASS II FACILITY(4)-SPACE FUNCTION SYS-6 FLR-2 SCH-B HPLCMT-CORE ZN,Zone Air Relative Humidity [%] !Daily [Value,Min,Hour,Minute,Max,Hour,Minute]
1512,1,SP-SPORTS ARENA PLAYING AREA CLASS III FACILITY(4)-SPACE FUNCTION SYS-6 FLR-4 SCH-B HPLCMT-EAST ZN,Zone Air Temperature [C] !Hourly
1513,7,SP-SPORTS ARENA PLAYING AREA CLASS III FACILITY(4)-SPACE FUNCTION SYS-6 FLR-4 SCH-B HPLCMT-EAST ZN,Zone Air Relative Humidity [%] !Daily [Value,Min,Hour,Minute,Max,Hour,Minute]
1552,1,SP-SPORTS ARENA PLAYING AREA CLASS IV FACILITY(4)-SPACE FUNCTION SYS-6 FLR-1 SCH-B HPLCMT-NORTH ZN,Zone Air Temperature [C] !Hourly
1553,7,SP-SPORTS ARENA PLAYING AREA CLASS IV FACILITY(4)-SPACE FUNCTION SYS-6 FLR-1 SCH-B HPLCMT-NORTH ZN,Zone Air Relative Humidity [%] !Daily [Value,Min,Hour,Minute,Max,Hour,Minute]
1592,1,SP-TRANSPORTATION FACILITY AIRPORT CONCOURSE-SPACE FUNCTION SYS-6 FLR-3 SCH-H HPLCMT-EAST ZN,Zone Air Temperature [C] !Hourly
1593,7,SP-TRANSPORTATION FACILITY AIRPORT CONCOURSE-SPACE FUNCTION SYS-6 FLR-3 SCH-H HPLCMT-EAST ZN,Zone Air Relative Humidity [%] !Daily [Value,Min,Hour,Minute,Max,Hour,Minute]
1632,1,SP-TRANSPORTATION FACILITY BAGGAGE/CAROUSEL AREA-SPACE FUNCTION SYS-6 FLR-1 SCH-H HPLCMT-EAST ZN,Zone Air Temperature [C] !Hourly
1633,7,SP-TRANSPORTATION FACILITY BAGGAGE/CAROUSEL AREA-SPACE FUNCTION SYS-6 FLR-1 SCH-H HPLCMT-EAST ZN,Zone Air Relative Humidity [%] !Daily [Value,Min,Hour,Minute,Max,Hour,Minute]
1672,1,SP-TRANSPORTATION FACILITY TERMINAL TICKET COUNTER-SPACE FUNCTION SYS-6 FLR-3 SCH-H HPLCMT-CORE ZN,Zone Air Temperature [C] !Hourly
1673,7,SP-TRANSPORTATION FACILITY TERMINAL TICKET COUNTER-SPACE FUNCTION SYS-6 FLR-3 SCH-H HPLCMT-CORE ZN,Zone Air Relative Humidity [%] !Daily [Value,Min,Hour,Minute,Max,Hour,Minute]
1712,1,SP-WAREHOUSE STORAGE AREA MEDIUM TO BULKY PALLETIZED ITEMS-SPACE FUNCTION SYS-4 FLR-1 SCH-A HPLCMT-CORE ZN,Zone Air Temperature [C] !Hourly
1713,7,SP-WAREHOUSE STORAGE AREA MEDIUM TO BULKY PALLETIZED ITEMS-SPACE FUNCTION SYS-4 FLR-1 SCH-A HPLCMT-CORE ZN,Zone Air Relative Humidity [%] !Daily [Value,Min,Hour,Minute,Max,Hour,Minute]
1752,1,SP-WAREHOUSE STORAGE AREA SMALL HAND-CARRIED ITEMS(4)-SPACE FUNCTION SYS-4 FLR-4 SCH-A HPLCMT-NORTH ZN,Zone Air Temperature [C] !Hourly
1753,7,SP-WAREHOUSE STORAGE AREA SMALL HAND-CARRIED ITEMS(4)-SPACE FUNCTION SYS-4 FLR-4 SCH-A HPLCMT-NORTH ZN,Zone Air Relative Humidity [%] !Daily [Value,Min,Hour,Minute,Max,Hour,Minute]
1792,1,SP-WHOLEBUILDING-AUTOMOTIVE FACILITY 1 SYS-4 FLR-2 SCH-E HPLCMT-WEST ZN,Zone Air Temperature [C] !Hourly
1793,7,SP-WHOLEBUILDING-AUTOMOTIVE FACILITY 1 SYS-4 FLR-2 SCH-E HPLCMT-WEST ZN,Zone Air Relative Humidity [%] !Daily [Value,Min,Hour,Minute,Max,Hour,Minute]
1832,1,SP-WHOLEBUILDING-AUTOMOTIVE FACILITY 2 SYS-4 FLR-2 SCH-E HPLCMT-SOUTH ZN,Zone Air Temperature [C] !Hourly
1833,7,SP-WHOLEBUILDING-AUTOMOTIVE FACILITY 2 SYS-4 FLR-2 SCH-E HPLCMT-SOUTH ZN,Zone Air Relative Humidity [%] !Daily [Value,Min,Hour,Minute,Max,Hour,Minute]
1872,1,SP-WHOLEBUILDING-AUTOMOTIVE FACILITY SYS-4 FLR-1 SCH-E HPLCMT-SOUTH ZN,Zone Air Temperature [C] !Hourly
1873,7,SP-WHOLEBUILDING-AUTOMOTIVE FACILITY SYS-4 FLR-1 SCH-E HPLCMT-SOUTH ZN,Zone Air Relative Humidity [%] !Daily [Value,Min,Hour,Minute,Max,Hour,Minute]
10,1,Electricity:Facility [J] !TimeStep
878,1,Gas:Facility [J] !TimeStep
End of Data Dictionary
1,FORT MCMURRAY AP ANN CLG .4% CONDNS DB=>MWB,  56.65,-111.22,  -7.00, 369.10
2,1, 7,21, 0, 1, 0.00,10.00,SummerDesignDay
8,14.218136923962174
10,314594150.3374913
878,96424877.23304461
2,1, 7,21, 0, 1,10.00,20.00,SummerDesignDay
8,14.171982153293495
10,314093157.4216469
878,95539151.66824828
2,1, 7,21, 0, 1,20.00,30.00,SummerDesignDay
8,14.125744780286427
10,313589216.1807458
878,137004248.52444754
2,1, 7,21, 0, 1,30.00,40.00,SummerDesignDay
8,14.079436086331978
10,313085245.28025338
878,95468344.34952481
2,1, 7,21, 0, 1,40.00,50.00,SummerDesignDay
8,14.033050387896898
10,312587013.68037256
878,95527283.9224282
2,1, 7,21, 0, 1,50.00,60.00,SummerDesignDay
8,13.986581233564835
10,312094467.009871
878,128339144.79637803
2,1, 7,21, 0, 1, 0.00,60.00,SummerDesignDay
1112,22.168521517811017
1152,22.31034313775456
1192,22.242539040099559
1232,23.622280057154354
1272,21.993412360324738
1312,21.072699633190799
1352,22.924346587346706
1392,23.94926304435553
1432,23.69210229027145
1472,23.721896945118798
1512,22.002131978840415
1552,23.543186319783314
1592,20.81474621578305
1632,23.70104123779474
1672,23.50679600129463
1712,24.36987470620785
1752,23.483687008905254
1792,24.151573737581729
1832,24.489280832367695
1872,23.643360506158115
2,1, 7,21, 0, 2, 0.00,10.00,SummerDesignDay
8,13.95555882260429
10,247939477.4325971
878,235237938.022613
2,1, 7,21, 0, 2,10.00,20.00,SummerDesignDay
8,13.924507755336454
10,246570302.62904126
878,95065246.89284528
2,1, 7,21, 0, 2,20.00,30.00,SummerDesignDay
8,13.893416042989206
10,246294635.5150998
878,226285846.51415665
2,1, 7,21, 0, 2,30.00,40.00,SummerDesignDay
8,13.862289589689029
10,246815256.5257667
878,92406332.63428834
2,1, 7,21, 0, 2,40.00,50.00,SummerDesignDay
8,13.831134407608739
10,246495522.56792636
878,92415343.31259601
2,1, 7,21, 0, 2,50.00,60.00,SummerDesignDay
8,13.799938415548118
10,246186010.71399988
878,92424430.20529998
2,1, 7,21, 0, 2, 0.00,60.00,SummerDesignDay
1112,21.69084984418403
1152,22.166454936573758
1192,22.064502356958074
1232,23.00826206947133
1272,21.783563996114393
1312,20.781109772892234
1352,22.305866801225887
1392,23.45608944097366
1432,22.517171534201258
1472,22.96900240120392
1512,21.984185175478375
1552,22.910250621488904
1592,20.29916841598646
1632,23.738234316581527
1672,23.61918130875695
1712,24.361477485197815
1752,23.33287067024585
1792,23.83180802950614
1832,24.20702515176441
1872,23.56170283660178
2,1, 7,21, 0, 3, 0.00,10.00,SummerDesignDay
8,13.776521671948676
10,196048949.10547436
878,38396220.93312862
2,1, 7,21, 0, 3,10.00,20.00,SummerDesignDay
8,13.753085235778466
10,195798728.1034974
878,37872036.30697651
2,1, 7,21, 0, 3,20.00,30.00,SummerDesignDay
8,13.729636002354969
10,194751972.8420833
878,39033948.865437638
2,1, 7,21, 0, 3,30.00,40.00,SummerDesignDay
8,13.706147375533054
10,193865089.1823076
878,12000.0
2,1, 7,21, 0, 3,40.00,50.00,SummerDesignDay
8,13.682651961920304
10,194573253.22990404
878,40742067.046829547
2,1, 7,21, 0, 3,50.00,60.00,SummerDesignDay
8,13.659136670643687
10,194325171.28008185
878,40804138.68126178
2,1, 7,21, 0, 3, 0.00,60.00,SummerDesignDay
1112,21.32908972537304
1152,22.004466679824689
1192,21.91917939378217
1232,22.784293884149958
1272,21.555330163364319
1312,20.60863992112961
1352,22.05272123772838
1392,22.94955812944748
1432,21.35357636317772
1472,21.980160726486856
1512,19.41022718150569
1552,21.970629215564388
1592,20.064231686887458
1632,23.827463963123923
1672,23.758006563682686
1712,24.338180822163755
1752,23.1969658047268
1792,23.47476050584045
1832,23.873619191447973
1872,23.505829952271978
2,1, 7,21, 0, 4, 0.00,10.00,SummerDesignDay
8,13.63560137410855
10,195034097.15354527
878,43463314.50412796
2,1, 7,21, 0, 4,10.00,20.00,SummerDesignDay
8,13.612040802606578
10,194787104.43361206
878,43488175.833612527
2,1, 7,21, 0, 4,20.00,30.00,SummerDesignDay
8,13.58846620506876
10,194540436.36314694
878,43505728.36945486
2,1, 7,21, 0, 4,30.00,40.00,SummerDesignDay
8,13.56487178447336
10,194294498.35457865
878,12000.0
2,1, 7,21, 0, 4,40.00,50.00,SummerDesignDay
8,13.541257354069103
10,194052888.14687706
878,43447138.623281758
2,1, 7,21, 0, 4,50.00,60.00,SummerDesignDay
8,13.517617463812285
10,193807113.95729367
878,43456412.75594428
2,1, 7,21, 0, 4, 0.00,60.00,SummerDesignDay
1112,20.988321471528577
1152,21.89240160247493
1192,21.762453982702483
1232,22.647162562424844
1272,21.39567681554291
1312,20.529299382154247
1352,21.81925910543819
1392,22.726609507502926
1432,20.823742301587115
1472,21.492735037758746
1512,18.085844152729075
1552,21.493224444044157
1592,19.9546255785846
1632,23.664805013419188
1672,23.527527534906736
1712,24.281540601111844
1752,23.045912501609565
1792,23.22600639346568
1832,23.64196788321608
1872,23.442231179601
2,1, 7,21, 0, 5, 0.00,10.00,SummerDesignDay
8,13.50185415824011
10,193636685.05342088
878,43476490.364627059
2,1, 7,21, 0, 5,10.00,20.00,SummerDesignDay
8,13.486076034032447
10,193470752.73189188
878,43495341.32572853
2,1, 7,21, 0, 5,20.00,30.00,SummerDesignDay
8,13.470289340350983
10,193305412.67379708
878,30438844.39553652
2,1, 7,21, 0, 5,30.00,40.00,SummerDesignDay
8,13.454493322631063
10,193142805.2647712
878,14633569.031170212
2,1, 7,21, 0, 5,40.00,50.00,SummerDesignDay
8,13.438688835118548
10,192980404.96265389
878,43445829.8559006
2,1, 7,21, 0, 5,50.00,60.00,SummerDesignDay
8,13.422888173889437
10,192818266.94993804
878,43463750.085028458
2,1, 7,21, 0, 5, 0.00,60.00,SummerDesignDay
1112,20.736610977936399
1152,21.791631090488449
1192,21.659481143235145
1232,22.531721044406184
1272,21.195215870237406
1312,20.402083269407059
1352,21.56995651388418
1392,22.66268433644001
1432,20.73687186628885
1472,21.348571990028558
1512,18.073324171151027
1552,21.288982272212754
1592,19.83761722536661
1632,23.68642233475181
1672,23.53918778997186
1712,24.212440754721283
1752,23.058812532026268
1792,23.08885020865974
1832,23.520352304320786
1872,23.380658378649377
2,1, 7,21, 0, 6, 0.00,10.00,SummerDesignDay
8,13.438688835118548
10,192945598.55696918
878,43483689.45787441
2,1, 7,21, 0, 6,10.00,20.00,SummerDesignDay
8,13.454493322631063
10,193107662.84145723
878,43501635.65822236
2,1, 7,21, 0, 6,20.00,30.00,SummerDesignDay
8,13.470289340350983
10,193270233.4237369
878,12000.0
2,1, 7,21, 0, 6,30.00,40.00,SummerDesignDay
8,13.486076034032447
10,193433015.96623377
878,43448352.88066468
2,1, 7,21, 0, 6,40.00,50.00,SummerDesignDay
8,13.50185415824011
10,193596008.2122532
878,43451082.89492195
2,1, 7,21, 0, 6,50.00,60.00,SummerDesignDay
8,13.517617463812285
10,193759160.53681747
878,43471230.523361798
2,1, 7,21, 0, 6, 0.00,60.00,SummerDesignDay
1112,20.742485539930706
1152,21.765053637447694
1192,21.665229416994888
1232,22.439940607761643
1272,21.02699243767813
1312,20.288990545584377
1352,21.530834242976
1392,22.635652917267156
1432,20.987881532905044
1472,21.234878250809559
1512,18.757160832717095
1552,21.127061487943775
1592,20.018134215209618
1632,23.6917052350296
1672,23.5429158631997
1712,24.14066319330485
1752,23.30520564003176
1792,22.98619293528513
1832,23.435856523997459
1872,23.319789054251179
2,1, 7,21, 0, 7, 0.00,10.00,SummerDesignDay
8,13.572736920571789
10,193930413.06799609
878,43490584.692995939
2,1, 7,21, 0, 7,10.00,20.00,SummerDesignDay
8,13.627748229152554
10,194505343.0872644
878,43507365.58595025
2,1, 7,21, 0, 7,20.00,30.00,SummerDesignDay
8,13.682651961920304
10,193169735.59951378
878,12000.0
2,1, 7,21, 0, 7,30.00,40.00,SummerDesignDay
8,13.737448093244995
10,193750124.369843
878,43446623.548651847
2,1, 7,21, 0, 7,40.00,50.00,SummerDesignDay
8,13.792137011831216
10,194333084.57301025
878,43458595.942704889
2,1, 7,21, 0, 7,50.00,60.00,SummerDesignDay
8,13.846719282840333
10,194918606.0902753
878,43478642.98859878
2,1, 7,21, 0, 7, 0.00,60.00,SummerDesignDay
1112,21.140812873304005
1152,21.622151206387419
1192,21.81106399600519
1232,22.36771510045082
1272,20.881925787084133
1312,20.18803222715509
1352,21.657642386416329
1392,22.52950472033034
1432,21.245028922437759
1472,21.13231462846279
1512,19.59680461346662
1552,20.988291581492818
1592,20.218990786750486
1632,23.69609186385911
1672,23.557292354021305
1712,23.764581597936134
1752,23.402017895113187
1792,22.90022772729931
1832,23.37143490391651
1872,23.26069194884465
2,1, 7,21, 0, 8, 0.00,10.00,SummerDesignDay
8,13.978831900527043
10,206558021.02518205
878,174765538.09856559
2,1, 7,21, 0, 8,10.00,20.00,SummerDesignDay
8,14.110321014287419
10,207880534.8363801
878,35331551.64952018
2,1, 7,21, 0, 8,20.00,30.00,SummerDesignDay
8,14.241191509616986
10,209345778.23324058
878,7105240.332147441
2,1, 7,21, 0, 8,30.00,40.00,SummerDesignDay
8,14.371447531304272
10,211360003.99668149
878,43521859.965845007
2,1, 7,21, 0, 8,40.00,50.00,SummerDesignDay
8,14.501093766564925
10,214579288.30219347
878,43531492.399750899
2,1, 7,21, 0, 8,50.00,60.00,SummerDesignDay
8,14.630134792273804
10,216805964.492352
878,43546530.57989501
2,1, 7,21, 0, 8, 0.00,60.00,SummerDesignDay
1112,22.466382253142837
1152,22.019548049857986
1192,22.10411575173735
1232,22.35849897525502
1272,20.776077924347097
1312,20.09980874720114
1352,21.929994770406549
1392,22.46286268583746
1432,21.40802351201413
1472,21.03547747980203
1512,20.337594534746886
1552,20.86325263197672
1592,20.371233032518849
1632,23.694143731920517
1672,23.56350089324155
1712,23.653985736216105
1752,23.84703146373164
1792,22.841160362857079
1832,23.330963557663848
1872,23.207078329425998
2,1, 7,21, 0, 9, 0.00,10.00,SummerDesignDay
8,14.773641492809972
10,272242340.9579687
878,172400734.57277958
2,1, 7,21, 0, 9,10.00,20.00,SummerDesignDay
8,14.91640948124148
10,276967770.8164732
878,39707276.904350008
2,1, 7,21, 0, 9,20.00,30.00,SummerDesignDay
8,15.05843890714102
10,282209893.06581929
878,41453682.19241223
2,1, 7,21, 0, 9,30.00,40.00,SummerDesignDay
8,15.199735893563798
10,290859794.56840208
878,43753707.47370827
2,1, 7,21, 0, 9,40.00,50.00,SummerDesignDay
8,15.340306256439395
10,295839484.84260097
878,43987034.90194744
2,1, 7,21, 0, 9,50.00,60.00,SummerDesignDay
8,15.48015101768072
10,302200590.56735476
878,44233243.35501018
2,1, 7,21, 0, 9, 0.00,60.00,SummerDesignDay
1112,23.827991432686859
1152,22.666064499383038
1192,23.486856130853764
1232,23.219911339645575
1272,21.993895508119065
1312,20.347393238817817
1352,23.11196063160521
1392,23.14808184854472
1432,21.461103471994706
1472,20.95210890059825
1512,20.931407065562664
1552,21.31733789699165
1592,21.222946098654167
1632,23.881859180862084
1672,23.680275575362989
1712,23.91776132567399
1752,23.99983435090893
1792,23.492673855081227
1832,23.83490244642475
1872,23.77853905450502
2,1, 7,21, 0,10, 0.00,10.00,SummerDesignDay
8,15.60467292907716
10,393698966.1025629
878,228058148.28154985
2,1, 7,21, 0,10,10.00,20.00,SummerDesignDay
8,15.72862731650033
10,399977675.1493144
878,105057090.11694654
2,1, 7,21, 0,10,20.00,30.00,SummerDesignDay
8,15.852017409284228
10,405587026.5693845
878,145341879.17047826
2,1, 7,21, 0,10,30.00,40.00,SummerDesignDay
8,15.974848118364367
10,408629495.5390439
878,145348391.97585155
2,1, 7,21, 0,10,40.00,50.00,SummerDesignDay
8,16.097123145563505
10,410337037.69919648
878,101448886.61900652
2,1, 7,21, 0,10,50.00,60.00,SummerDesignDay
8,16.218846351168599
10,414940354.7999348
878,145581509.74563567
2,1, 7,21, 0,10, 0.00,60.00,SummerDesignDay
1112,24.06241249906115
1152,23.179272399206544
1192,23.999616606960616
1232,24.595753197175438
1272,22.000126742604466
1312,20.838196988973725
1352,24.914834875783197
1392,23.98699153722598
1432,22.379946815000989
1472,21.91853063143613
1512,22.504261535195857
1552,22.282452558910764
1592,21.399283469228878
1632,23.84665391849762
1672,23.609745276468165
1712,23.99992580351711
1752,23.999703905746406
1792,23.999830527351678
1832,23.99978151956015
1872,23.99967431635008
2,1, 7,21, 0,11, 0.00,10.00,SummerDesignDay
8,16.325793027093189
10,463884537.46469888
878,148687804.90913124
2,1, 7,21, 0,11,10.00,20.00,SummerDesignDay
8,16.432322158488288
10,470619709.7132425
878,134772267.1022753
2,1, 7,21, 0,11,20.00,30.00,SummerDesignDay
8,16.538424180249178
10,470911781.4530806
878,118412211.4361573
2,1, 7,21, 0,11,30.00,40.00,SummerDesignDay
8,16.644108396469087
10,478149001.9385815
878,149062412.1338482
2,1, 7,21, 0,11,40.00,50.00,SummerDesignDay
8,16.749376736593655
10,480783539.304909
878,149049746.6269018
2,1, 7,21, 0,11,50.00,60.00,SummerDesignDay
8,16.854232613237156
10,484853956.1118235
878,149043600.87957094
2,1, 7,21, 0,11, 0.00,60.00,SummerDesignDay
1112,24.261721713968887
1152,23.474469096297868
1192,23.998502807118
1232,25.919519387273995
1272,22.000126561061199
1312,21.637177759653697
1352,26.45951306201165
1392,23.9998293020835
1432,22.84394583866822
1472,22.516900052054714
1512,23.16519267820463
1552,22.33050861860903
1592,21.06659033887038
1632,23.648270903489267
1672,23.510067483101556
1712,23.9998802066288
1752,23.999383680564806
1792,23.999651247555478
1832,23.99940800658007
1872,23.9991098616412
2,1, 7,21, 0,12, 0.00,10.00,SummerDesignDay
8,16.92390823520069
10,513050556.1816737
878,95517763.01660149
2,1, 7,21, 0,12,10.00,20.00,SummerDesignDay
8,16.99340178950456
10,514058374.7891164
878,94738857.03935087
2,1, 7,21, 0,12,20.00,30.00,SummerDesignDay
8,17.06272006743463
10,516995631.24376937
878,116725267.62719104
2,1, 7,21, 0,12,30.00,40.00,SummerDesignDay
8,17.131853229172639
10,519419466.6694927
878,114233862.94660284
2,1, 7,21, 0,12,40.00,50.00,SummerDesignDay
8,17.200807172194087
10,521679434.5043245
878,94688872.56181959
2,1, 7,21, 0,12,50.00,60.00,SummerDesignDay
8,17.269582116758607
10,523485612.505301
878,94741314.07848771
2,1, 7,21, 0,12, 0.00,60.00,SummerDesignDay
1112,24.24849539301633
1152,23.507514342641838
1192,23.99794864996423
1232,27.06671204405863
1272,22.003446681704657
1312,21.7220315395552
1352,27.794518269634144
1392,23.99977515559142
1432,23.264986084076967
1472,23.28962503273664
1512,23.71856739810997
1552,22.98544004280875
1592,20.850771805248117
1632,23.654052507413814
1672,23.52110622510493
1712,23.99988690885658
1752,23.999375652471245
1792,23.999645949777503
1832,23.999344025258059
1872,23.999017542109355
2,1, 7,21, 0,13, 0.00,10.00,SummerDesignDay
8,17.32447360221357
10,528419459.732109
878,142568041.85095278
2,1, 7,21, 0,13,10.00,20.00,SummerDesignDay
8,17.379251291230806
10,532557676.0992567
878,107216004.13985297
2,1, 7,21, 0,13,20.00,30.00,SummerDesignDay
8,17.433921312061729
10,537592062.1423845
878,136272182.74127329
2,1, 7,21, 0,13,30.00,40.00,SummerDesignDay
8,17.488473222557489
10,534576408.58104088
878,138359160.24665264
2,1, 7,21, 0,13,40.00,50.00,SummerDesignDay
8,17.542913447755134
10,540758979.0072779
878,105060701.16545937
2,1, 7,21, 0,13,50.00,60.00,SummerDesignDay
8,17.59724609886134
10,538790078.6093437
878,143354615.20419989
2,1, 7,21, 0,13, 0.00,60.00,SummerDesignDay
1112,24.30093200505581
1152,23.503336589982653
1192,23.996560503606916
1232,27.957175257461004
1272,22.129222695938098
1312,22.13601218489673
1352,28.86970365059604
1392,23.999621268224293
1432,23.937621227417357
1472,23.952360716457624
1512,23.99441018766468
1552,23.474336115831436
1592,20.809491880533355
1632,23.742757048917054
1672,23.49493516723361
1712,23.999884230322839
1752,23.99937366918219
1792,23.999579277082728
1832,23.999218531832196
1872,23.99875354147775
2,1, 7,21, 0,14, 0.00,10.00,SummerDesignDay
8,17.6311450462694
10,540908727.4536963
878,134808756.07054318
2,1, 7,21, 0,14,10.00,20.00,SummerDesignDay
8,17.665000449016245
10,540207892.8870406
878,117450734.89355795
2,1, 7,21, 0,14,20.00,30.00,SummerDesignDay
8,17.698812743128934
10,543386933.8341243
878,148818698.3223735
2,1, 7,21, 0,14,30.00,40.00,SummerDesignDay
8,17.732582050940107
10,545896374.2448672
878,148806560.86519239
2,1, 7,21, 0,14,40.00,50.00,SummerDesignDay
8,17.766307345121004
10,545339401.3080318
878,148801300.9344459
2,1, 7,21, 0,14,50.00,60.00,SummerDesignDay
8,17.79999023167558
10,545944297.2668996
878,120915450.19096431
2,1, 7,21, 0,14, 0.00,60.00,SummerDesignDay
1112,24.34180164147669
1152,23.47366744064047
1192,23.9957002295248
1232,28.581875035478459
1272,22.392436471698166
1312,22.345785603162836
1352,29.64797308573941
1392,23.999536818223438
1432,23.996329473822909
1472,23.996208186714104
1512,23.99662022449679
1552,23.474544042489155
1592,20.908727151437483
1632,23.758474723915684
1672,23.516591601487336
1712,23.99988249358515
1752,23.999426050085068
1792,23.999545554979546
1832,23.999191252748067
1872,23.998498733981028
2,1, 7,21, 0,15, 0.00,10.00,SummerDesignDay
8,17.79999023167558
10,579604493.0124823
878,126372650.76458206
2,1, 7,21, 0,15,10.00,20.00,SummerDesignDay
8,17.79999023167558
10,573577268.2906392
878,144566936.2221648
2,1, 7,21, 0,15,20.00,30.00,SummerDesignDay
8,17.79999023167558
10,565527076.5692271
878,148491048.44728188
2,1, 7,21, 0,15,30.00,40.00,SummerDesignDay
8,17.79999023167558
10,562068780.5089084
878,135054427.76890833
2,1, 7,21, 0,15,40.00,50.00,SummerDesignDay
8,17.79999023167558
10,562731578.7283145
878,117073987.42386055
2,1, 7,21, 0,15,50.00,60.00,SummerDesignDay
8,17.79999023167558
10,562215397.8018682
878,148314959.14971996
2,1, 7,21, 0,15, 0.00,60.00,SummerDesignDay
1112,24.631032195402797
1152,23.819495369579007
1192,23.99845161861788
1232,24.30088701527428
1272,23.253639459465036
1312,22.03332744434569
1352,24.51692165237567
1392,23.999854962380267
1432,23.828356345598448
1472,23.86463144279321
1512,23.99892621247784
1552,23.535355906563085
1592,20.37230633036302
1632,23.837797874517834
1672,23.850867826025774
1712,23.999951008407228
1752,23.999777437279716
1792,23.999835996796919
1832,23.999774376538423
1872,23.99949491922364
2,1, 7,21, 0,16, 0.00,10.00,SummerDesignDay
8,17.759562446305357
10,576968995.4256586
878,130712563.9192709
2,1, 7,21, 0,16,10.00,20.00,SummerDesignDay
8,17.71907809634183
10,577272462.2365755
878,106570992.89939834
2,1, 7,21, 0,16,20.00,30.00,SummerDesignDay
8,17.67853788661001
10,578045412.3127483
878,99882400.9988487
2,1, 7,21, 0,16,30.00,40.00,SummerDesignDay
8,17.63791796367351
10,575694574.7795384
878,136448717.7034381
2,1, 7,21, 0,16,40.00,50.00,SummerDesignDay
8,17.59724609886134
10,573324934.8629478
878,97033807.26811512
2,1, 7,21, 0,16,50.00,60.00,SummerDesignDay
8,17.55650676726033
10,571742335.8986788
878,139194987.4593075
2,1, 7,21, 0,16, 0.00,60.00,SummerDesignDay
1112,24.573901947880058
1152,23.518121246436775
1192,23.996222191549874
1232,23.99983190408945
1272,23.50650321977636
1312,21.998251805278874
1352,23.999773868516
1392,23.999718928200058
1432,23.27794040727675
1472,23.38856772486132
1512,23.486005988892683
1552,23.165229339269318
1592,21.186300610083014
1632,23.64290601846595
1672,23.52469186405131
1712,23.999839193062937
1752,23.99938812951189
1792,23.999377737261555
1832,23.99933602693329
1872,23.998346942082099
2,1, 7,21, 0,17, 0.00,10.00,SummerDesignDay
8,17.50209486331892
10,570268466.8734222
878,93092087.23968902
2,1, 7,21, 0,17,10.00,20.00,SummerDesignDay
8,17.447570789624618
10,568521683.9445506
878,92692221.74303648
2,1, 7,21, 0,17,20.00,30.00,SummerDesignDay
8,17.392929544208135
10,566891824.8881991
878,92706527.26528767
2,1, 7,21, 0,17,30.00,40.00,SummerDesignDay
8,17.33818013976614
10,564247666.88373
878,92720060.9980428
2,1, 7,21, 0,17,40.00,50.00,SummerDesignDay
8,17.283317298559309
10,562217212.2613046
878,92733433.91272354
2,1, 7,21, 0,17,50.00,60.00,SummerDesignDay
8,17.22833552437677
10,560223857.0059027
878,92746711.25959352
2,1, 7,21, 0,17, 0.00,60.00,SummerDesignDay
1112,24.304454500281694
1152,23.58099423096979
1192,23.996355227985235
1232,23.999750190625006
1272,23.546213905789757
1312,22.033632776346257
1352,23.999704626707925
1392,23.999791854439626
1432,23.146141242020894
1472,23.240005562006144
1512,23.006686969083139
1552,22.97093329123541
1592,21.412591499685587
1632,23.645659131167549
1672,23.56492552363998
1712,23.99981825025073
1752,23.999427454478839
1792,23.99923690939542
1832,23.999275344500945
1872,23.998223123532708
2,1, 7,21, 0,18, 0.00,10.00,SummerDesignDay
8,17.159453019160176
10,553601919.8952551
878,90738808.07975489
2,1, 7,21, 0,18,10.00,20.00,SummerDesignDay
8,17.090391773337136
10,550888301.5462834
878,90514668.83712873
2,1, 7,21, 0,18,20.00,30.00,SummerDesignDay
8,17.021151077964786
10,549104710.1395377
878,90512464.15430811
2,1, 7,21, 0,18,30.00,40.00,SummerDesignDay
8,16.951729380464653
10,545777392.2101656
878,90511075.24418468
2,1, 7,21, 0,18,40.00,50.00,SummerDesignDay
8,16.882126503829249
10,542658795.236422
878,90509619.26804121
2,1, 7,21, 0,18,50.00,60.00,SummerDesignDay
8,16.812341807494034
10,539582831.9384555
878,90508059.65446553
2,1, 7,21, 0,18, 0.00,60.00,SummerDesignDay
1112,24.36159861651141
1152,23.607536952471496
1192,23.997138255958125
1232,23.999739752406126
1272,23.5335648354598
1312,22.067174993735688
1352,23.99970819162935
1392,23.999787860261848
1432,23.260579648520389
1472,23.400788279576486
1512,22.740130243985126
1552,23.15817912200669
1592,21.49164935646836
1632,23.644216073740237
1672,23.574635352091915
1712,23.999825601350336
1752,23.99957026147435
1792,23.999183012706597
1832,23.999264140226616
1872,23.998273163721508
2,1, 7,21, 0,19, 0.00,10.00,SummerDesignDay
8,16.707321072823203
10,499520841.4938297
878,91886419.86751956
2,1, 7,21, 0,19,10.00,20.00,SummerDesignDay
8,16.601881826644556
10,494505462.7768933
878,92040951.3832298
2,1, 7,21, 0,19,20.00,30.00,SummerDesignDay
8,16.496030555252849
10,489831046.86861547
878,92045430.65190877
2,1, 7,21, 0,19,30.00,40.00,SummerDesignDay
8,16.389760181474104
10,486644324.151436
878,92050026.13812523
2,1, 7,21, 0,19,40.00,50.00,SummerDesignDay
8,16.283067654262039
10,476887337.51447656
878,92054600.2779586
2,1, 7,21, 0,19,50.00,60.00,SummerDesignDay
8,16.17595057957811
10,473130264.83411118
878,92059149.97971818
2,1, 7,21, 0,19, 0.00,60.00,SummerDesignDay
1112,24.23634272940188
1152,23.63513966963809
1192,23.99839307397542
1232,23.99921569242483
1272,23.49433215960195
1312,22.23980122691107
1352,23.999458898765075
1392,23.999686582708347
1432,23.81335400532316
1472,23.85018154356605
1512,22.87913228822679
1552,23.49422292036333
1592,21.130103536180735
1632,23.73534285695239
1672,23.580628722898934
1712,23.999892852479208
1752,23.999795914786163
1792,23.999636997231098
1832,23.999693002443008
1872,23.999411160121963
2,1, 7,21, 0,20, 0.00,10.00,SummerDesignDay
8,16.097123145563505
10,436255159.3049101
878,93365840.52400984
2,1, 7,21, 0,20,10.00,20.00,SummerDesignDay
8,16.018070242471564
10,429355388.0400539
878,111656658.77686194
2,1, 7,21, 0,20,20.00,30.00,SummerDesignDay
8,15.938779752340516
10,425896838.4788017
878,118688553.06873061
2,1, 7,21, 0,20,30.00,40.00,SummerDesignDay
8,15.85926152575189
10,422811329.4426851
878,94877760.9595928
2,1, 7,21, 0,20,40.00,50.00,SummerDesignDay
8,15.779503718563929
10,420720421.2857316
878,94935820.37409394
2,1, 7,21, 0,20,50.00,60.00,SummerDesignDay
8,15.699515709672767
10,417473183.6947576
878,127948735.42798102