Program Version,EnergyPlus, Version 8.9.0-eba93e8e1b, YMD=2019.03.20 17:53
1,5,Environment Title[],Latitude[deg],Longitude[deg],Time Zone[],Elevation[m]
2,8,Day of Simulation[],Month[],Day of Month[],DST Indicator[1=yes 0=no],Hour[],StartMinute[],EndMinute[],DayType
3,5,Cumulative Day of Simulation[],Month[],Day of Month[],DST Indicator[1=yes 0=no],DayType  ! When Daily Report Variables Requested
4,2,Cumulative Days of Simulation[],Month[]  ! When Monthly Report Variables Requested
5,1,Cumulative Days of Simulation[] ! When Run Period Report Variables Requested
6,1,Calendar Year of Simulation[] ! When Annual Report Variables Requested
7,9,Environment,Site Outdoor Air Drybulb Temperature [C] !Monthly [Value,Min,Day,Hour,Minute,Max,Day,Hour,Minute]
8,1,Environment,Site Outdoor Air Wetbulb Temperature [C] !TimeStep
904,1,ALL_ST=COURTHOUSE - CHAMBERS_FL=STORY 2_SCH=A,Zone Air Temperature [C] !Hourly
905,7,ALL_ST=COURTHOUSE - CHAMBERS_FL=STORY 2_SCH=A,Zone Air Relative Humidity [%] !Daily [Value,Min,Hour,Minute,Max,Hour,Minute]
944,1,ALL_ST=COURTHOUSE - COURTROOM_FL=STORY 2_SCH=A,Zone Air Temperature [C] !Hourly
945,7,ALL_ST=COURTHOUSE - COURTROOM_FL=STORY 2_SCH=A,Zone Air Relative Humidity [%] !Daily [Value,Min,Hour,Minute,Max,Hour,Minute]
984,1,DU_BT=SPACE FUNCTION_ST=COURTHOUSE - CELL_FL=STORY 3_SCHH,Zone Air Temperature [C] !Hourly
985,7,DU_BT=SPACE FUNCTION_ST=COURTHOUSE - CELL_FL=STORY 3_SCHH,Zone Air Relative Humidity [%] !Daily [Value,Min,Hour,Minute,Max,Hour,Minute]
1024,1,WILD_ST=CORR. < 2.4M WIDE-SCH-B_FL=STORY 4_SCH=A,Zone Air Temperature [C] !Hourly
1025,7,WILD_ST=CORR. < 2.4M WIDE-SCH-B_FL=STORY 4_SCH=A,Zone Air Relative Humidity [%] !Daily [Value,Min,Hour,Minute,Max,Hour,Minute]
1064,1,WILD_ST=CORR. < 2.4M WIDE-SCH-C_FL=STORY 4_SCH=A,Zone Air Temperature [C] !Hourly
1065,7,WILD_ST=CORR. < 2.4M WIDE-SCH-C_FL=STORY 4_SCH=A,Zone Air Relative Humidity [%] !Daily [Value,Min,Hour,Minute,Max,Hour,Minute]
1104,1,WILD_ST=CORR. < 2.4M WIDE-SCH-D_FL=STORY 4_SCH=A,Zone Air Temperature [C] !Hourly
1105,7,WILD_ST=CORR. < 2.4M WIDE-SCH-D_FL=STORY 4_SCH=A,Zone Air Relative Humidity [%] !Daily [Value,Min,Hour,Minute,Max,Hour,Minute]
1144,1,WILD_ST=CORR. < 2.4M WIDE-SCH-E_FL=STORY 3_SCH=A,Zone Air Temperature [C] !Hourly
1145,7,WILD_ST=CORR. < 2.4M WIDE-SCH-E_FL=STORY 3_SCH=A,Zone Air Relative Humidity [%] !Daily [Value,Min,Hour,Minute,Max,Hour,Minute]
1184,1,WILD_ST=CORR. < 2.4M WIDE-SCH-F_FL=STORY 3_SCH=A,Zone Air Temperature [C] !Hourly
1185,7,WILD_ST=CORR. < 2.4M WIDE-SCH-F_FL=STORY 3_SCH=A,Zone Air Relative Humidity [%] !Daily [Value,Min,Hour,Minute,Max,Hour,Minute]
1224,1,WILD_ST=CORR. < 2.4M WIDE-SCH-G_FL=STORY 3_SCH=A,Zone Air Temperature [C] !Hourly
1225,7,WILD_ST=CORR. < 2.4M WIDE-SCH-G_FL=STORY 3_SCH=A,Zone Air Relative Humidity [%] !Daily [Value,Min,Hour,Minute,Max,Hour,Minute]
1264,1,WILD_ST=CORR. < 2.4M WIDE-SCH-H_FL=STORY 2_SCH=A,Zone Air Temperature [C] !Hourly
1265,7,WILD_ST=CORR. < 2.4M WIDE-SCH-H_FL=STORY 2_SCH=A,Zone Air Relative Humidity [%] !Daily [Value,Min,Hour,Minute,Max,Hour,Minute]
1304,1,WILD_ST=CORR. < 2.4M WIDE-SCH-I_FL=STORY 1_SCH=A,Zone Air Temperature [C] !Hourly
1305,7,WILD_ST=CORR. < 2.4M WIDE-SCH-I_FL=STORY 1_SCH=A,Zone Air Relative Humidity [%] !Daily [Value,Min,Hour,Minute,Max,Hour,Minute]
1344,1,WILD_ST=CORR. >= 2.4M WIDE-SCH-A_FL=STORY 2_SCH=A,Zone Air Temperature [C] !Hourly
1345,7,WILD_ST=CORR. >= 2.4M WIDE-SCH-A_FL=STORY 2_SCH=A,Zone Air Relative Humidity [%] !Daily [Value,Min,Hour,Minute,Max,Hour,Minute]
1384,1,WILD_ST=CORR. >= 2.4M WIDE-SCH-B_FL=STORY 4_SCH=A,Zone Air Temperature [C] !Hourly
1385,7,WILD_ST=CORR. >= 2.4M WIDE-SCH-B_FL=STORY 4_SCH=A,Zone Air Relative Humidity [%] !Daily [Value,Min,Hour,Minute,Max,Hour,Minute]
1424,1,WILD_ST=CORR. >= 2.4M WIDE-SCH-C_FL=STORY 1_SCH=A,Zone Air Temperature [C] !Hourly
1425,7,WILD_ST=CORR. >= 2.4M WIDE-SCH-C_FL=STORY 1_SCH=A,Zone Air Relative Humidity [%] !Daily [Value,Min,Hour,Minute,Max,Hour,Minute]
1464,1,WILD_ST=CORR. >= 2.4M WIDE-SCH-D_FL=STORY 1_SCH=A,Zone Air Temperature [C] !Hourly
1465,7,WILD_ST=CORR. >= 2.4M WIDE-SCH-D_FL=STORY 1_SCH=A,Zone Air Relative Humidity [%] !Daily [Value,Min,Hour,Minute,Max,Hour,Minute]
1504,1,WILD_ST=CORR. >= 2.4M WIDE-SCH-E_FL=STORY 3_SCH=A,Zone Air Temperature [C] !Hourly
1505,7,WILD_ST=CORR. >= 2.4M WIDE-SCH-E_FL=STORY 3_SCH=A,Zone Air Relative Humidity [%] !Daily [Value,Min,Hour,Minute,Max,Hour,Minute]
1544,1,WILD_ST=CORR. >= 2.4M WIDE-SCH-F_FL=STORY 1_SCH=A,Zone Air Temperature [C] !Hourly
1545,7,WILD_ST=CORR. >= 2.4M WIDE-SCH-F_FL=STORY 1_SCH=A,Zone Air Relative Humidity [%] !Daily [Value,Min,Hour,Minute,Max,Hour,Minute]
1584,1,WILD_ST=CORR. >= 2.4M WIDE-SCH-G_FL=STORY 1_SCH=A,Zone Air Temperature [C] !Hourly
1585,7,WILD_ST=CORR. >= 2.4M WIDE-SCH-G_FL=STORY 1_SCH=A,Zone Air Relative Humidity [%] !Daily [Value,Min,Hour,Minute,Max,Hour,Minute]
1624,1,WILD_ST=CORR. >= 2.4M WIDE-SCH-H_FL=STORY 2_SCH=A,Zone Air Temperature [C] !Hourly
1625,7,WILD_ST=CORR. >= 2.4M WIDE-SCH-H_FL=STORY 2_SCH=A,Zone Air Relative Humidity [%] !Daily [Value,Min,Hour,Minute,Max,Hour,Minute]
1664,1,WILD_ST=CORR. >= 2.4M WIDE-SCH-I_FL=STORY 4_SCH=A,Zone Air Temperature [C] !Hourly
1665,7,WILD_ST=CORR. >= 2.4M WIDE-SCH-I_FL=STORY 4_SCH=A,Zone Air Relative Humidity [%] !Daily [Value,Min,Hour,Minute,Max,Hour,Minute]
10,1,Electricity:Facility [J] !TimeStep
670,1,Gas:Facility [J] !TimeStep
End of Data Dictionary
1,FORT MCMURRAY AP ANN CLG .4% CONDNS DB=>MWB,  56.65,-111.22,  -7.00, 369.10
2,1, 7,21, 0, 1, 0.00,10.00,SummerDesignDay
8,14.218136923962174
10,49447896.98458538
670,15277272.382722393
2,1, 7,21, 0, 1,10.00,20.00,SummerDesignDay
8,14.171982153293495
10,49345669.41091753
670,15220697.40859662
2,1, 7,21, 0, 1,20.00,30.00,SummerDesignDay
8,14.125744780286427
10,49244938.989597659
670,15145541.990959973
2,1, 7,21, 0, 1,30.00,40.00,SummerDesignDay
8,14.079436086331978
10,49143821.00393405
670,20331341.99453875
2,1, 7,21, 0, 1,40.00,50.00,SummerDesignDay
8,14.033050387896898
10,49041321.952937979
670,21977020.429895306
2,1, 7,21, 0, 1,50.00,60.00,SummerDesignDay
8,13.986581233564835
10,48936274.97941748
670,21986549.234642399
2,1, 7,21, 0, 1, 0.00,60.00,SummerDesignDay
904,25.64950654122647
944,22.84538141917885
984,23.99680597829037
1024,23.909709880829025
1064,23.871030025983065
1104,23.66181183559176
1144,25.425243224410776
1184,25.172682717062373
1224,25.548705504730028
1264,25.243128314500298
1304,24.966020307496167
1344,25.400505735333526
1384,24.124129365243417
1424,25.17212698525435
1464,25.1400892151682
1504,25.571840172623806
1544,25.097182872404504
1584,24.883057431934135
1624,25.222414228815138
1664,24.307132552169816
2,1, 7,21, 0, 2, 0.00,10.00,SummerDesignDay
8,13.95555882260429
10,48853324.206783767
670,21996515.847385989
2,1, 7,21, 0, 2,10.00,20.00,SummerDesignDay
8,13.924507755336454
10,48769946.71141181
670,22006488.049186823
2,1, 7,21, 0, 2,20.00,30.00,SummerDesignDay
8,13.893416042989206
10,48686129.615327607
670,20437248.352705506
2,1, 7,21, 0, 2,30.00,40.00,SummerDesignDay
8,13.862289589689029
10,48601980.35329539
670,15271448.24700213
2,1, 7,21, 0, 2,40.00,50.00,SummerDesignDay
8,13.831134407608739
10,48519154.11514954
670,15203733.879707914
2,1, 7,21, 0, 2,50.00,60.00,SummerDesignDay
8,13.799938415548118
10,48436942.93142365
670,15127257.514852662
2,1, 7,21, 0, 2, 0.00,60.00,SummerDesignDay
904,25.478323262018646
944,22.53631654115996
984,23.996914316739493
1024,23.579217983474977
1064,23.535651519100175
1104,23.335136783065907
1144,25.24032138763808
1184,24.969563000061055
1224,25.303546221151096
1264,25.066875342997464
1304,24.849958957912788
1344,25.21996997853456
1384,23.836432266394053
1424,25.05966923481655
1464,25.02269827983162
1504,25.35046570584019
1544,24.981803522514416
1584,24.751734110415808
1624,25.087365832409394
1664,23.982643831215186
2,1, 7,21, 0, 3, 0.00,10.00,SummerDesignDay
8,13.776521671948676
10,48366490.46705286
670,21943947.79480038
2,1, 7,21, 0, 3,10.00,20.00,SummerDesignDay
8,13.753085235778466
10,48294561.497185658
670,21979086.87804378
2,1, 7,21, 0, 3,20.00,30.00,SummerDesignDay
8,13.729636002354969
10,48220873.12264738
670,21988880.1307706
2,1, 7,21, 0, 3,30.00,40.00,SummerDesignDay
8,13.706147375533054
10,48146810.77387831
670,21998856.576990788
2,1, 7,21, 0, 3,40.00,50.00,SummerDesignDay
8,13.682651961920304
10,48072544.0305518
670,22008827.078598866
2,1, 7,21, 0, 3,50.00,60.00,SummerDesignDay
8,13.659136670643687
10,47998080.93907217
670,18859882.66797788
2,1, 7,21, 0, 3, 0.00,60.00,SummerDesignDay
904,25.337372254980566
944,22.29972462366778
984,23.99700718292438
1024,23.313127666085298
1064,23.261988244864644
1104,23.07033141858032
1144,25.072463654436665
1184,24.789897696093946
1224,25.087189378295379
1264,24.918056620047009
1304,24.755801813902094
1344,25.063502535176764
1384,23.598195550516285
1424,24.96366449458571
1464,24.923017592254586
1504,25.15333451775365
1544,24.88394567429636
1584,24.640134965347575
1624,24.970154533841766
1664,23.7126100852068
2,1, 7,21, 0, 4, 0.00,10.00,SummerDesignDay
8,13.63560137410855
10,47923711.11823908
670,15257256.165301295
2,1, 7,21, 0, 4,10.00,20.00,SummerDesignDay
8,13.612040802606578
10,47851129.34388946
670,15186152.005613344
2,1, 7,21, 0, 4,20.00,30.00,SummerDesignDay
8,13.58846620506876
10,47778997.97665951
670,16697577.806567634
2,1, 7,21, 0, 4,30.00,40.00,SummerDesignDay
8,13.56487178447336
10,47706720.27410757
670,21973648.77327637
2,1, 7,21, 0, 4,40.00,50.00,SummerDesignDay
8,13.541257354069103
10,47632418.67464209
670,21981351.574102224
2,1, 7,21, 0, 4,50.00,60.00,SummerDesignDay
8,13.517617463812285
10,47556879.24371661
670,21991221.07582536
2,1, 7,21, 0, 4, 0.00,60.00,SummerDesignDay
904,25.20914320808437
944,22.090113587927477
984,23.99709606770936
1024,23.082166218225909
1064,23.02196368870447
1104,22.83876113590513
1144,24.91394591508448
1184,24.622433303209094
1224,24.886377307264639
1264,24.783607647799554
1304,24.672165093517607
1344,24.919308082160769
1384,23.388902229808854
1424,24.875988959571559
1464,24.83274432324812
1504,24.96950914572538
1544,24.795222875336106
1584,24.537759470314567
1624,24.86170514161569
1664,23.474013187651356
2,1, 7,21, 0, 5, 0.00,10.00,SummerDesignDay
8,13.50185415824011
10,47493929.985460679
670,22001196.45887901
2,1, 7,21, 0, 5,10.00,20.00,SummerDesignDay
8,13.486076034032447
10,47444313.782205078
670,22011165.11597408
2,1, 7,21, 0, 5,20.00,30.00,SummerDesignDay
8,13.470289340350983
10,47390760.28516483
670,17280491.548693945
2,1, 7,21, 0, 5,30.00,40.00,SummerDesignDay
8,13.454493322631063
10,47338552.3754606
670,15241978.927435754
2,1, 7,21, 0, 5,40.00,50.00,SummerDesignDay
8,13.438688835118548
10,47289420.65354534
670,15168362.884946116
2,1, 7,21, 0, 5,50.00,60.00,SummerDesignDay
8,13.422888173889437
10,47241939.48111551
670,18299308.46039061
2,1, 7,21, 0, 5, 0.00,60.00,SummerDesignDay
904,25.184685950854289
944,21.900600908936736
984,23.99716564837989
1024,22.930531450819144
1064,23.019156674860388
1104,22.77566005542586
1144,24.764648924679194
1184,24.527012430074078
1224,24.707320725711655
1264,24.667959562418309
1304,24.595348448819335
1344,24.792335070297736
1384,23.24568769849596
1424,24.793688159358799
1464,24.74937222021939
1504,24.89804535587855
1544,24.712645191842666
1584,24.440932760901274
1624,24.821875198352428
1664,23.313523469161607
2,1, 7,21, 0, 6, 0.00,10.00,SummerDesignDay
8,13.438688835118548
10,47252107.74436114
670,21974915.51709427
2,1, 7,21, 0, 6,10.00,20.00,SummerDesignDay
8,13.454493322631063
10,47259362.55850561
670,21983633.627615114
2,1, 7,21, 0, 6,20.00,30.00,SummerDesignDay
8,13.470289340350983
10,47266473.786439638
670,21993558.828056683
2,1, 7,21, 0, 6,30.00,40.00,SummerDesignDay
8,13.486076034032447
10,47275047.344194788
670,22003532.928513856
2,1, 7,21, 0, 6,40.00,50.00,SummerDesignDay
8,13.50185415824011
10,47285144.60500634
670,22013499.61731379
2,1, 7,21, 0, 6,50.00,60.00,SummerDesignDay
8,13.517617463812285
10,47296850.08153835
670,15700231.00852763
2,1, 7,21, 0, 6, 0.00,60.00,SummerDesignDay
904,25.576549435919959
944,21.82016184841689
984,23.997176757748219
1024,23.070095178412545
1064,23.772779286754689
1104,23.04835748472131
1144,24.688158133504179
1184,24.563868858970364
1224,24.64076126091153
1264,24.6482639839757
1304,24.56444551241751
1344,24.758994133794244
1384,23.367921942302855
1424,24.752476923902795
1464,24.722555077263708
1504,25.241438569587733
1544,24.673221220381554
1584,24.383908217022499
1624,24.893701674049173
1664,23.437523919752349
2,1, 7,21, 0, 7, 0.00,10.00,SummerDesignDay
8,13.572736920571789
10,54176402.21863435
670,15041834.520074064
2,1, 7,21, 0, 7,10.00,20.00,SummerDesignDay
8,13.627748229152554
10,52145760.984960477
670,15220379.329020076
2,1, 7,21, 0, 7,20.00,30.00,SummerDesignDay
8,13.682651961920304
10,51687876.03223365
670,20056999.443435763
2,1, 7,21, 0, 7,30.00,40.00,SummerDesignDay
8,13.737448093244995
10,51860664.70339985
670,21977928.880890363
2,1, 7,21, 0, 7,40.00,50.00,SummerDesignDay
8,13.792137011831216
10,51918499.39371852
670,21986086.26134896
2,1, 7,21, 0, 7,50.00,60.00,SummerDesignDay
8,13.846719282840333
10,52015892.88494843
670,21996045.433374287
2,1, 7,21, 0, 7, 0.00,60.00,SummerDesignDay
904,24.096344957599614
944,21.941274257234026
984,23.997737858718194
1024,23.492380666874437
1064,24.73013798393245
1104,23.377626764442728
1144,24.70498351852542
1184,24.578402322360618
1224,24.697068464617649
1264,24.725808610365765
1304,24.593357241152334
1344,24.819808808832847
1384,23.752179010282164
1424,24.767308526647729
1464,24.77893045442352
1504,25.696263402275347
1544,24.69204637455945
1584,24.38468116583813
1624,24.890274092643165
1664,23.823186403294345
2,1, 7,21, 0, 8, 0.00,10.00,SummerDesignDay
8,13.978831900527043
10,105374250.44807309
670,22599616.713792199
2,1, 7,21, 0, 8,10.00,20.00,SummerDesignDay
8,14.110321014287419
10,118025832.40676457
670,22674634.078930577
2,1, 7,21, 0, 8,20.00,30.00,SummerDesignDay
8,14.241191509616986
10,119749943.25599812
670,17403522.144761918
2,1, 7,21, 0, 8,30.00,40.00,SummerDesignDay
8,14.371447531304272
10,124946862.62322484
670,17030880.75373563
2,1, 7,21, 0, 8,40.00,50.00,SummerDesignDay
8,14.501093766564925
10,129451308.76474495
670,16985462.53652007
2,1, 7,21, 0, 8,50.00,60.00,SummerDesignDay
8,14.630134792273804
10,133710787.07007769
670,16938260.517620218
2,1, 7,21, 0, 8, 0.00,60.00,SummerDesignDay
904,23.99956097372478
944,22.832417750214807
984,23.997050097806583
1024,23.991591129015779
1064,25.694872636508234
1104,23.871379427767655
1144,24.73524152181328
1184,24.633524098009418
1224,24.679447335001503
1264,24.783564251499347
1304,24.73116094584813
1344,24.81768563887096
1384,24.33221245639997
1424,24.854798772736236
1464,24.912119681678424
1504,26.04612282659359
1544,24.780777561679487
1584,24.466056347585306
1624,24.9487254407172
1664,24.28326514735436
2,1, 7,21, 0, 9, 0.00,10.00,SummerDesignDay
8,14.773641492809972
10,255567220.3764944
670,27759018.00055152
2,1, 7,21, 0, 9,10.00,20.00,SummerDesignDay
8,14.91640948124148
10,265642703.20558543
670,29887230.912229759
2,1, 7,21, 0, 9,20.00,30.00,SummerDesignDay
8,15.05843890714102
10,270269045.8051056
670,29880812.597263848
2,1, 7,21, 0, 9,30.00,40.00,SummerDesignDay
8,15.199735893563798
10,275209535.84662666
670,29881658.319720657
2,1, 7,21, 0, 9,40.00,50.00,SummerDesignDay
8,15.340306256439395
10,280599057.9877829
670,29883347.022448604
2,1, 7,21, 0, 9,50.00,60.00,SummerDesignDay
8,15.48015101768072
10,285687710.4713491
670,29885034.76287879
2,1, 7,21, 0, 9, 0.00,60.00,SummerDesignDay
904,23.99902041084339
944,23.965720557168934
984,23.997284675378777
1024,23.99981166337513
1064,26.000892321884295
1104,23.99331908947787
1144,24.553245343732347
1184,24.475601723023887
1224,24.25525392760045
1264,24.570199847318265
1304,24.87731117912654
1344,24.461036152575777
1384,24.543833321124894
1424,24.89447201502908
1464,24.95130149305787
1504,25.869559439754018
1544,24.809111121665194
1584,24.528216204467517
1624,24.91163587150365
1664,24.21304744957452
2,1, 7,21, 0,10, 0.00,10.00,SummerDesignDay
8,15.60467292907716
10,315124347.4975991
670,29886721.60174276
2,1, 7,21, 0,10,10.00,20.00,SummerDesignDay
8,15.72862731650033
10,320287248.2659793
670,29888407.39401859
2,1, 7,21, 0,10,20.00,30.00,SummerDesignDay
8,15.852017409284228
10,325150300.4766103
670,29890091.98228459
2,1, 7,21, 0,10,30.00,40.00,SummerDesignDay
8,15.974848118364367
10,329963198.1512226
670,28120570.70219069
2,1, 7,21, 0,10,40.00,50.00,SummerDesignDay
8,16.097123145563505
10,334666750.6891213
670,26930775.14621893
2,1, 7,21, 0,10,50.00,60.00,SummerDesignDay
8,16.218846351168599
10,339366731.47054347
670,26925997.775807028
2,1, 7,21, 0,10, 0.00,60.00,SummerDesignDay
904,23.998634272833927
944,23.995826972700799
984,23.99677817093676
1024,23.999653598650487
1064,25.909620544710874
1104,23.96459648774398
1144,24.22771001325386
1184,24.179631811288944
1224,23.719836982980778
1264,24.306826391035899
1304,24.80204743358188
1344,23.970746096872177
1384,24.57230496597481
1424,24.73439997364471
1464,24.805033165431934
1504,25.469844864127976
1544,24.643319739234597
1584,24.413195201937837
1624,24.722490328131597
1664,23.993574536619375
2,1, 7,21, 0,11, 0.00,10.00,SummerDesignDay
8,16.325793027093189
10,344060843.3911067
670,32084789.856484996
2,1, 7,21, 0,11,10.00,20.00,SummerDesignDay
8,16.432322158488288
10,348954792.16268727
670,32525576.196262834
2,1, 7,21, 0,11,20.00,30.00,SummerDesignDay
8,16.538424180249178
10,353494943.6395911
670,33100368.191594099
2,1, 7,21, 0,11,30.00,40.00,SummerDesignDay
8,16.644108396469087
10,357921725.5391655
670,43882843.444249238
2,1, 7,21, 0,11,40.00,50.00,SummerDesignDay
8,16.749376736593655
10,362522315.0764339
670,40874875.824145268
2,1, 7,21, 0,11,50.00,60.00,SummerDesignDay
8,16.854232613237156
10,367266669.0156958
670,32541579.986413666
2,1, 7,21, 0,11, 0.00,60.00,SummerDesignDay
904,23.998545687345318
944,23.9951658909437
984,23.996528388791487
1024,23.999540563798275
1064,25.267005740888178
1104,23.74967414180061
1144,23.880658001587219
1184,23.8528449512406
1224,23.200347707465899
1264,24.12995158099888
1304,24.541278824390206
1344,23.46836403499086
1384,24.38413220559715
1424,24.433542484832853
1464,24.534325107719086
1504,24.841823191107165
1544,24.356419862909609
1584,24.158695055137846
1624,24.447922221411365
1664,23.62983553158853
2,1, 7,21, 0,12, 0.00,10.00,SummerDesignDay
8,16.92390823520069
10,370983903.8369578
670,32532376.283244615
2,1, 7,21, 0,12,10.00,20.00,SummerDesignDay
8,16.99340178950456
10,374448440.64199057
670,32522040.11458706
2,1, 7,21, 0,12,20.00,30.00,SummerDesignDay
8,17.06272006743463
10,377674334.8543979
670,37126164.93647929
2,1, 7,21, 0,12,30.00,40.00,SummerDesignDay
8,17.131853229172639
10,380659685.13299056
670,43893353.77549731
2,1, 7,21, 0,12,40.00,50.00,SummerDesignDay
8,17.200807172194087
10,383384692.81678017
670,36847759.01199779
2,1, 7,21, 0,12,50.00,60.00,SummerDesignDay
8,17.269582116758607
10,385885263.2383549
670,32538639.448547353
2,1, 7,21, 0,12, 0.00,60.00,SummerDesignDay
904,23.998402893185145
944,23.994765023980269
984,23.996258620429559
1024,23.99948314722044
1064,24.493233350957344
1104,23.50142747866127
1144,23.626229442501118
1184,23.605841479509168
1224,22.799341153571203
1264,24.051413701393004
1304,24.297649463562278
1344,23.05784008534423
1384,24.14678216343235
1424,24.156515520049074
1464,24.28377521273187
1504,24.242882650100595
1544,24.115458021415497
1584,23.93184668703822
1624,24.21326001597784
1664,23.26901430600496
2,1, 7,21, 0,13, 0.00,10.00,SummerDesignDay
8,17.32447360221357
10,385240211.4794662
670,32528757.96653877
2,1, 7,21, 0,13,10.00,20.00,SummerDesignDay
8,17.379251291230806
10,386910090.16000869
670,32518299.23245429
2,1, 7,21, 0,13,20.00,30.00,SummerDesignDay
8,17.433921312061729
10,388429743.4355601
670,41156045.885627027
2,1, 7,21, 0,13,30.00,40.00,SummerDesignDay
8,17.488473222557489
10,389823443.21900549
670,43905681.761018458
2,1, 7,21, 0,13,40.00,50.00,SummerDesignDay
8,17.542913447755134
10,391057832.4511652
670,32817768.635401384
2,1, 7,21, 0,13,50.00,60.00,SummerDesignDay
8,17.59724609886134
10,392174809.7187938
670,32535311.575775487
2,1, 7,21, 0,13, 0.00,60.00,SummerDesignDay
904,23.998518241419136
944,23.996117045366075
984,23.99612127644838
1024,23.999575806180457
1064,24.11673387127354
1104,23.35077378988855
1144,23.49943722592756
1184,23.480487354265944
1224,22.572885596314138
1264,24.02086393240556
1304,24.120043339033957
1344,22.792317053213453
1384,23.980260121341389
1424,23.945763531521679
1464,24.093778225739979
1504,23.950221282410998
1544,23.95994681923192
1584,23.773134613364495
1624,24.055903208376717
1664,23.039461089546138
2,1, 7,21, 0,14, 0.00,10.00,SummerDesignDay
8,17.6311450462694
10,392720500.01525238
670,32525091.292355438
2,1, 7,21, 0,14,10.00,20.00,SummerDesignDay
8,17.665000449016245
10,393127963.7960483
670,33817825.9688865
2,1, 7,21, 0,14,20.00,30.00,SummerDesignDay
8,17.698812743128934
10,393378938.94281557
670,43884585.465062107
2,1, 7,21, 0,14,30.00,40.00,SummerDesignDay
8,17.732582050940107
10,393440391.10583987
670,40157012.91344689
2,1, 7,21, 0,14,40.00,50.00,SummerDesignDay
8,17.766307345121004
10,393364545.8735049
670,32541083.81262839
2,1, 7,21, 0,14,50.00,60.00,SummerDesignDay
8,17.79999023167558
10,393145679.10768476
670,32531734.55093858
2,1, 7,21, 0,14, 0.00,60.00,SummerDesignDay
904,23.998596734908035
944,23.99673880172701
984,24.0085255908191
1024,23.999765253156693
1064,24.042837065374344
1104,23.348590729545668
1144,23.533536324135075
1184,23.514643221642829
1224,22.582883895602053
1264,24.04018481617412
1304,24.06348561171049
1344,22.74448109443811
1384,23.935834994030797
1424,23.858223085473275
1464,24.026078172017838
1504,23.89845806417176
1544,23.937264232957845
1584,23.736833615045638
1624,24.025753200995543
1664,23.0583914572232
2,1, 7,21, 0,15, 0.00,10.00,SummerDesignDay
8,17.79999023167558
10,394633518.92388859
670,32521375.094857538
2,1, 7,21, 0,15,10.00,20.00,SummerDesignDay
8,17.79999023167558
10,393519932.830319
670,37844609.95761637
2,1, 7,21, 0,15,20.00,30.00,SummerDesignDay
8,17.79999023167558
10,392201079.25095686
670,43895418.487902339
2,1, 7,21, 0,15,30.00,40.00,SummerDesignDay
8,17.79999023167558
10,390682343.24140909
670,36129260.27308436
2,1, 7,21, 0,15,40.00,50.00,SummerDesignDay
8,17.79999023167558
10,388956294.1786084
670,32538074.47921832
2,1, 7,21, 0,15,50.00,60.00,SummerDesignDay
8,17.79999023167558
10,387029956.8818328
670,32528107.655674746
2,1, 7,21, 0,15, 0.00,60.00,SummerDesignDay
904,23.99836158721057
944,23.995287456975985
984,24.026196253366469
1024,23.99978938074055
1064,24.152517626558745
1104,23.512621561619459
1144,23.752803264915824
1184,23.727492524965937
1224,23.042480591031546
1264,24.115190434384077
1304,24.16740411655
1344,23.144894178518894
1384,24.041848428618598
1424,23.94131215048718
1464,24.125038453710489
1504,24.05530489815457
1544,24.076701176653044
1584,23.86367725306081
1624,24.153207672494135
1664,23.63438501899942
2,1, 7,21, 0,16, 0.00,10.00,SummerDesignDay
8,17.759562446305357
10,383836457.19580486
670,32517629.119264269
2,1, 7,21, 0,16,10.00,20.00,SummerDesignDay
8,17.71907809634183
10,380701074.7947781
670,41875055.57311035
2,1, 7,21, 0,16,20.00,30.00,SummerDesignDay
8,17.67853788661001
10,377244538.76300349
670,43462524.75049641
2,1, 7,21, 0,16,30.00,40.00,SummerDesignDay
8,17.63791796367351
10,373646563.8762108
670,32543270.690784374
2,1, 7,21, 0,16,40.00,50.00,SummerDesignDay
8,17.59724609886134
10,370036874.12441977
670,32534677.88114716
2,1, 7,21, 0,16,50.00,60.00,SummerDesignDay
8,17.55650676726033
10,366984219.78003659
670,32524430.831488424
2,1, 7,21, 0,16, 0.00,60.00,SummerDesignDay
904,23.99815386256463
944,23.99422135545129
984,23.99600008603017
1024,23.99968098466252
1064,24.344388279733378
1104,23.771727485633279
1144,24.10236154986157
1184,24.060133627260769
1224,23.84339484315409
1264,24.23631858518063
1304,24.36816408024462
1344,23.88132705808053
1384,24.238001427206027
1424,24.14635157764881
1464,24.331531782815345
1504,24.36010567683684
1544,24.30763453452528
1584,24.08840138848423
1624,24.377636348205756
1664,24.57312635612898
2,1, 7,21, 0,17, 0.00,10.00,SummerDesignDay
8,17.50209486331892
10,363671285.41322138
670,30318086.99589162
2,1, 7,21, 0,17,10.00,20.00,SummerDesignDay
8,17.447570789624618
10,360290589.47833368
670,33728981.26496668
2,1, 7,21, 0,17,20.00,30.00,SummerDesignDay
8,17.392929544208135
10,357105980.3135215
670,35549014.631848897
2,1, 7,21, 0,17,30.00,40.00,SummerDesignDay
8,17.33818013976614
10,354019317.79032209
670,35557901.151113789
2,1, 7,21, 0,17,40.00,50.00,SummerDesignDay
8,17.283317298559309
10,350962064.54474118
670,35567274.844084139
2,1, 7,21, 0,17,50.00,60.00,SummerDesignDay
8,17.22833552437677
10,347916686.0133754
670,32645140.549624314
2,1, 7,21, 0,17, 0.00,60.00,SummerDesignDay
904,23.998112749129377
944,23.99411804904877
984,23.99597912635726
1024,23.999738471982796
1064,24.465807190657587
1104,23.96636565627803
1144,24.510902284303428
1184,24.440971360487358
1224,24.623777684876364
1264,24.448490334793786
1304,24.62441519634602
1344,24.578009573122399
1384,24.370033200144957
1424,24.435444954389287
1464,24.596901007431275
1504,24.727540556605978
1544,24.580910485490919
1584,24.36681576990887
1624,24.649968720059677
1664,25.26038469226756
2,1, 7,21, 0,18, 0.00,10.00,SummerDesignDay
8,17.159453019160176
10,321612610.8869885
670,27284203.109967837
2,1, 7,21, 0,18,10.00,20.00,SummerDesignDay
8,17.090391773337136
10,317787194.14954236
670,26924908.152236124
2,1, 7,21, 0,18,20.00,30.00,SummerDesignDay
8,17.021151077964786
10,314183237.6790489
670,26919795.73590556
2,1, 7,21, 0,18,30.00,40.00,SummerDesignDay
8,16.951729380464653
10,310814380.4069258
670,26914797.407576134
2,1, 7,21, 0,18,40.00,50.00,SummerDesignDay
8,16.882126503829249
10,307583295.89138999
670,26909756.72037542
2,1, 7,21, 0,18,50.00,60.00,SummerDesignDay
8,16.812341807494034
10,304460575.1919209
670,26904669.452383646
2,1, 7,21, 0,18, 0.00,60.00,SummerDesignDay
904,23.99840164174974
944,23.99527691150858
984,23.995933157612176
1024,23.999806081762768
1064,24.431975131167694
1104,24.002096952910838
1144,24.868930380323687
1184,24.76944974380058
1224,25.26889519107316
1264,24.70828320732423
1304,24.82773647719526
1344,25.133419418426418
1384,24.334390495457745
1424,24.702265960735735
1464,24.821787885842018
1504,25.063425822378805
1544,24.800512279755894
1584,24.600184889963317
1624,24.88378150628721
1664,25.573214292031069
2,1, 7,21, 0,19, 0.00,10.00,SummerDesignDay
8,16.707321072823203
10,227393024.125605
670,23208359.44693604
2,1, 7,21, 0,19,10.00,20.00,SummerDesignDay
8,16.601881826644556
10,222623013.9883833
670,22723690.47014437
2,1, 7,21, 0,19,20.00,30.00,SummerDesignDay
8,16.496030555252849
10,218718278.14337263
670,23443005.819080209
2,1, 7,21, 0,19,30.00,40.00,SummerDesignDay
8,16.389760181474104
10,214999812.12985594
670,25766942.19325338
2,1, 7,21, 0,19,40.00,50.00,SummerDesignDay
8,16.283067654262039
10,211491844.40621258
670,25768103.12089707
2,1, 7,21, 0,19,50.00,60.00,SummerDesignDay
8,16.17595057957811
10,208142787.9970673
670,25769700.087208306
2,1, 7,21, 0,19, 0.00,60.00,SummerDesignDay
904,23.99911793398522
944,23.997771964273129
984,23.995959706207374
1024,23.999886874428957
1064,24.30288714778052
1104,23.974778879392287
1144,25.106127244342387
1184,24.997573398910079
1224,25.70805150428112
1264,24.910350166067507
1304,24.86393735009896
1344,25.48828436129297
1384,24.209634867089937
1424,24.84386750827622
1464,24.92055317370828
1504,25.326608777753106
1544,24.88393654389363
1584,24.68968397226888
1624,25.023822339534588
1664,25.589234788883059
2,1, 7,21, 0,20, 0.00,10.00,SummerDesignDay
8,16.097123145563505
10,157948562.20044909
670,24268553.0006422
2,1, 7,21, 0,20,10.00,20.00,SummerDesignDay
8,16.018070242471564
10,154757427.7684497
670,24115043.980709875
2,1, 7,21, 0,20,20.00,30.00,SummerDesignDay
8,15.938779752340516
10,152068286.0041382
670,24118205.24226776
2,1, 7,21, 0,20,30.00,40.00,SummerDesignDay
8,15.85926152575189
10,149441030.2295207
670,24121421.40160275
2,1, 7,21, 0,20,40.00,50.00,SummerDesignDay
8,15.779503718563929
10,146870611.1212957
670,24124634.170741917
2,1, 7,21, 0,20,50.00,60.00,SummerDesignDay
8,15.699515709672767
10,144257387.98695223
670,22267994.598803864
2,1, 7,21, 0,20, 0.00,60.00,SummerDesignDay
904,23.999550817068696
944,23.999253128274135
984,23.996071220063035
1024,23.999940541139723
1064,24.183790856483609
1104,24.03891373104817
1144,25.25687131753158
1184,25.20396344949506
1224,25.865899386703224
1264,25.049699578877847
1304,24.846229939943709
1344,25.58479907971895
1384,24.135304522268457
1424,24.93287538592199
1464,24.964116437246405
1504,25.496982463610438
1544,24.916646508319717
1584,24.716392678161637
1624,25.17566097012625
1664,25.316588798280127
2,1, 7,21, 0,21, 0.00,10.00,SummerDesignDay
8,15.63389147320404
10,141972014.40219874
670,20163481.89499172
2,1, 7,21, 0,21,10.00,20.00,SummerDesignDay
8,15.56810827419793
10,139734754.84805478
670,20146310.875886654
2,1, 7,21, 0,21,20.00,30.00,SummerDesignDay
8,15.502170882753524
10,137507290.8443098
670,20128112.437271675
2,1, 7,21, 0,21,30.00,40.00,SummerDesignDay
8,15.436068032613852
10,135277226.04942934
670,20109548.644652409
2,1, 7,21, 0,21,40.00,50.00,SummerDesignDay
8,15.369804371206009
10,133077310.77038957
670,20090639.66080233
2,1, 7,21, 0,21,50.00,60.00,SummerDesignDay
8,15.303384603594449
10,130567292.25019251
670,21797064.560790983
2,1, 7,21, 0,21, 0.00,60.00,SummerDesignDay
904,23.999692099098796
944,23.99962669373197
984,23.996270569088144
1024,23.99996685879074
1064,24.11325313370848
1104,24.020708880087427
1144,25.39606283569839
1184,25.350621747745099
1224,25.778002272107007
1264,25.178772839974476
1304,24.930824063287039
1344,25.466796233874019
1384,24.12501034174527
1424,25.07293689410228
1464,25.058223677713987
1504,25.608788868617397
1544,25.012819767982366
1584,24.807617731238609
1624,25.316330854325554
1664,24.763379903886148
2,1, 7,21, 0,22, 0.00,10.00,SummerDesignDay