Program Version,EnergyPlus, Version 8.9.0-eba93e8e1b, YMD=2019.03.20 17:53
1,5,Environment Title[],Latitude[deg],Longitude[deg],Time Zone[],Elevation[m]
2,8,Day of Simulation[],Month[],Day of Month[],DST Indicator[1=yes 0=no],Hour[],StartMinute[],EndMinute[],DayType
3,5,Cumulative Day of Simulation[],Month[],Day of Month[],DST Indicator[1=yes 0=no],DayType  ! When Daily Report Variables Requested
4,2,Cumulative Days of Simulation[],Month[]  ! When Monthly Report Variables Requested
5,1,Cumulative Days of Simulation[] ! When Run Period Report Variables Requested
6,1,Calendar Year of Simulation[] ! When Annual Report Variables Requested
7,9,Environment,Site Outdoor Air Drybulb Temperature [C] !Monthly [Value,Min,Day,Hour,Minute,Max,Day,Hour,Minute]
8,1,Environment,Site Outdoor Air Wetbulb Temperature [C] !TimeStep
1125,1,ALL_ST=WHOLEBUILDING_FL=STORY 1_SCH=A,Zone Air Temperature [C] !Hourly
1126,7,ALL_ST=WHOLEBUILDING_FL=STORY 1_SCH=A,Zone Air Relative Humidity [%] !Daily [Value,Min,Hour,Minute,Max,Hour,Minute]
1165,1,ALL_ST=WHOLEBUILDING_FL=STORY 1_SCH=A 1,Zone Air Temperature [C] !Hourly
1166,7,ALL_ST=WHOLEBUILDING_FL=STORY 1_SCH=A 1,Zone Air Relative Humidity [%] !Daily [Value,Min,Hour,Minute,Max,Hour,Minute]
1205,1,ALL_ST=WHOLEBUILDING_FL=STORY 1_SCH=B,Zone Air Temperature [C] !Hourly
1206,7,ALL_ST=WHOLEBUILDING_FL=STORY 1_SCH=B,Zone Air Relative Humidity [%] !Daily [Value,Min,Hour,Minute,Max,Hour,Minute]
1245,1,ALL_ST=WHOLEBUILDING_FL=STORY 1_SCH=C,Zone Air Temperature [C] !Hourly
1246,7,ALL_ST=WHOLEBUILDING_FL=STORY 1_SCH=C,Zone Air Relative Humidity [%] !Daily [Value,Min,Hour,Minute,Max,Hour,Minute]
1285,1,ALL_ST=WHOLEBUILDING_FL=STORY 1_SCH=H,Zone Air Temperature [C] !Hourly
1286,7,ALL_ST=WHOLEBUILDING_FL=STORY 1_SCH=H,Zone Air Relative Humidity [%] !Daily [Value,Min,Hour,Minute,Max,Hour,Minute]
1325,1,ALL_ST=WHOLEBUILDING_FL=STORY 2_SCH=A,Zone Air Temperature [C] !Hourly
1326,7,ALL_ST=WHOLEBUILDING_FL=STORY 2_SCH=A,Zone Air Relative Humidity [%] !Daily [Value,Min,Hour,Minute,Max,Hour,Minute]
1365,1,ALL_ST=WHOLEBUILDING_FL=STORY 2_SCH=C,Zone Air Temperature [C] !Hourly
1366,7,ALL_ST=WHOLEBUILDING_FL=STORY 2_SCH=C,Zone Air Relative Humidity [%] !Daily [Value,Min,Hour,Minute,Max,Hour,Minute]
1405,1,ALL_ST=WHOLEBUILDING_FL=STORY 2_SCH=F,Zone Air Temperature [C] !Hourly
1406,7,ALL_ST=WHOLEBUILDING_FL=STORY 2_SCH=F,Zone Air Relative Humidity [%] !Daily [Value,Min,Hour,Minute,Max,Hour,Minute]
1445,1,ALL_ST=WHOLEBUILDING_FL=STORY 3_SCH=B,Zone Air Temperature [C] !Hourly
1446,7,ALL_ST=WHOLEBUILDING_FL=STORY 3_SCH=B,Zone Air Relative Humidity [%] !Daily [Value,Min,Hour,Minute,Max,Hour,Minute]
1485,1,ALL_ST=WHOLEBUILDING_FL=STORY 3_SCH=B 1,Zone Air Temperature [C] !Hourly
1486,7,ALL_ST=WHOLEBUILDING_FL=STORY 3_SCH=B 1,Zone Air Relative Humidity [%] !Daily [Value,Min,Hour,Minute,Max,Hour,Minute]
1525,1,ALL_ST=WHOLEBUILDING_FL=STORY 3_SCH=B 2,Zone Air Temperature [C] !Hourly
1526,7,ALL_ST=WHOLEBUILDING_FL=STORY 3_SCH=B 2,Zone Air Relative Humidity [%] !Daily [Value,Min,Hour,Minute,Max,Hour,Minute]
1565,1,ALL_ST=WHOLEBUILDING_FL=STORY 4_SCH=A,Zone Air Temperature [C] !Hourly
1566,7,ALL_ST=WHOLEBUILDING_FL=STORY 4_SCH=A,Zone Air Relative Humidity [%] !Daily [Value,Min,Hour,Minute,Max,Hour,Minute]
1605,1,ALL_ST=WHOLEBUILDING_FL=STORY 4_SCH=B,Zone Air Temperature [C] !Hourly
1606,7,ALL_ST=WHOLEBUILDING_FL=STORY 4_SCH=B,Zone Air Relative Humidity [%] !Daily [Value,Min,Hour,Minute,Max,Hour,Minute]
1645,1,ALL_ST=WHOLEBUILDING_FL=STORY 4_SCH=C,Zone Air Temperature [C] !Hourly
1646,7,ALL_ST=WHOLEBUILDING_FL=STORY 4_SCH=C,Zone Air Relative Humidity [%] !Daily [Value,Min,Hour,Minute,Max,Hour,Minute]
1685,1,ALL_ST=WHOLEBUILDING_FL=STORY 4_SCH=C 1,Zone Air Temperature [C] !Hourly
1686,7,ALL_ST=WHOLEBUILDING_FL=STORY 4_SCH=C 1,Zone Air Relative Humidity [%] !Daily [Value,Min,Hour,Minute,Max,Hour,Minute]
1725,1,ALL_ST=WHOLEBUILDING_FL=STORY 4_SCH=E,Zone Air Temperature [C] !Hourly
1726,7,ALL_ST=WHOLEBUILDING_FL=STORY 4_SCH=E,Zone Air Relative Humidity [%] !Daily [Value,Min,Hour,Minute,Max,Hour,Minute]
1765,1,DU_BT=DORMITORY_ST=WHOLEBUILDING_FL=STORY 2_SCHG,Zone Air Temperature [C] !Hourly
1766,7,DU_BT=DORMITORY_ST=WHOLEBUILDING_FL=STORY 2_SCHG,Zone Air Relative Humidity [%] !Daily [Value,Min,Hour,Minute,Max,Hour,Minute]
1805,1,DU_BT=HOTEL_ST=WHOLEBUILDING_FL=STORY 3_SCHF,Zone Air Temperature [C] !Hourly
1806,7,DU_BT=HOTEL_ST=WHOLEBUILDING_FL=STORY 3_SCHF,Zone Air Relative Humidity [%] !Daily [Value,Min,Hour,Minute,Max,Hour,Minute]
1845,1,DU_BT=MOTEL_ST=WHOLEBUILDING_FL=STORY 2_SCHF,Zone Air Temperature [C] !Hourly
1846,7,DU_BT=MOTEL_ST=WHOLEBUILDING_FL=STORY 2_SCHF,Zone Air Relative Humidity [%] !Daily [Value,Min,Hour,Minute,Max,Hour,Minute]
1885,1,DU_BT=MULTI-UNIT RESIDENTIAL_ST=WHOLEBUILDING_FL=STORY 3_SCHG,Zone Air Temperature [C] !Hourly
1886,7,DU_BT=MULTI-UNIT RESIDENTIAL_ST=WHOLEBUILDING_FL=STORY 3_SCHG,Zone Air Relative Humidity [%] !Daily [Value,Min,Hour,Minute,Max,Hour,Minute]
10,1,Electricity:Facility [J] !TimeStep
891,1,Gas:Facility [J] !TimeStep
End of Data Dictionary
1,FORT MCMURRAY AP ANN CLG .4% CONDNS DB=>MWB,  56.65,-111.22,  -7.00, 369.10
2,1, 7,21, 0, 1, 0.00,10.00,SummerDesignDay
8,14.218136923962174
10,185090449.91705237
891,116669352.91631009
2,1, 7,21, 0, 1,10.00,20.00,SummerDesignDay
8,14.171982153293495
10,182388088.38561584
891,111004103.12020357
2,1, 7,21, 0, 1,20.00,30.00,SummerDesignDay
8,14.125744780286427
10,181539248.05496664
891,108179304.3620377
2,1, 7,21, 0, 1,30.00,40.00,SummerDesignDay
8,14.079436086331978
10,180701382.47246523
891,108113840.91864343
2,1, 7,21, 0, 1,40.00,50.00,SummerDesignDay
8,14.033050387896898
10,179870525.27617318
891,108043684.89214099
2,1, 7,21, 0, 1,50.00,60.00,SummerDesignDay
8,13.986581233564835
10,179049161.366385
891,108040291.15571505
2,1, 7,21, 0, 1, 0.00,60.00,SummerDesignDay
1125,22.77096881112084
1165,23.537141292299169
1205,23.998318365590337
1245,22.831821315671069
1285,23.99856475170031
1325,24.10804401298341
1365,24.545665709486106
1405,23.997640871431299
1445,23.99736131467858
1485,23.997598848284185
1525,23.997944532366146
1565,24.209570105058366
1605,23.810796094918634
1645,23.56428392423147
1685,24.163443832146475
1725,22.85218726667216
1765,23.99907638214094
1805,23.889646800917018
1845,23.887403550117427
1885,23.905462241021508
2,1, 7,21, 0, 2, 0.00,10.00,SummerDesignDay
8,13.95555882260429
10,129919376.57536225
891,81462375.77670741
2,1, 7,21, 0, 2,10.00,20.00,SummerDesignDay
8,13.924507755336454
10,127847840.02219594
891,104944256.45795925
2,1, 7,21, 0, 2,20.00,30.00,SummerDesignDay
8,13.893416042989206
10,129450459.39485987
891,52871125.078634608
2,1, 7,21, 0, 2,30.00,40.00,SummerDesignDay
8,13.862289589689029
10,126951069.91435567
891,105206217.90704595
2,1, 7,21, 0, 2,40.00,50.00,SummerDesignDay
8,13.831134407608739
10,127355692.39703721
891,98618981.5261559
2,1, 7,21, 0, 2,50.00,60.00,SummerDesignDay
8,13.799938415548118
10,126793161.96431414
891,60165355.263119887
2,1, 7,21, 0, 2, 0.00,60.00,SummerDesignDay
1125,22.6861151705596
1165,23.297393807385217
1205,24.268488935764308
1245,22.55128682508149
1285,23.99871112141233
1325,24.05663315424518
1365,24.32590903431009
1405,23.998443003649184
1445,24.193908945880357
1485,24.123496082276785
1525,24.436120629426214
1565,23.88239378861854
1605,22.989073940192655
1645,23.19454280120964
1685,23.803469784624086
1725,22.44059914339758
1765,23.999452499004876
1805,23.89775807623901
1845,23.895860114691648
1885,23.91204590079273
2,1, 7,21, 0, 3, 0.00,10.00,SummerDesignDay
8,13.776521671948676
10,97993219.44065319
891,46892483.04756289
2,1, 7,21, 0, 3,10.00,20.00,SummerDesignDay
8,13.753085235778466
10,96507079.89655622
891,46375494.41018388
2,1, 7,21, 0, 3,20.00,30.00,SummerDesignDay
8,13.729636002354969
10,98088422.24026422
891,43349465.24326203
2,1, 7,21, 0, 3,30.00,40.00,SummerDesignDay
8,13.706147375533054
10,95592981.85095538
891,4786465.179808785
2,1, 7,21, 0, 3,40.00,50.00,SummerDesignDay
8,13.682651961920304
10,95982750.33986901
891,46708064.742145199
2,1, 7,21, 0, 3,50.00,60.00,SummerDesignDay
8,13.659136670643687
10,95340920.6974483
891,46924632.03693281
2,1, 7,21, 0, 3, 0.00,60.00,SummerDesignDay
1125,22.599136867773294
1165,23.097142340786346
1205,23.91877538715427
1245,22.31746429767058
1285,23.9996659056328
1325,23.999121364000858
1365,24.140926184701745
1405,23.99883205692385
1445,23.699447826153717
1485,23.614301392014708
1525,24.06510021089713
1565,23.57600670751553
1605,21.786814233194226
1645,22.84947938306745
1685,23.460276448219167
1725,22.071046574115156
1765,23.99955346101633
1805,23.897677875061178
1845,23.895973866115303
1885,23.911605155720936
2,1, 7,21, 0, 4, 0.00,10.00,SummerDesignDay
8,13.63560137410855
10,90325433.91417352
891,1883250.6723819248
2,1, 7,21, 0, 4,10.00,20.00,SummerDesignDay
8,13.612040802606578
10,89535385.17757847
891,46029247.23244062
2,1, 7,21, 0, 4,20.00,30.00,SummerDesignDay
8,13.58846620506876
10,89195898.88640617
891,2118858.8611390495
2,1, 7,21, 0, 4,30.00,40.00,SummerDesignDay
8,13.56487178447336
10,88850939.00434833
891,46181171.55521589
2,1, 7,21, 0, 4,40.00,50.00,SummerDesignDay
8,13.541257354069103
10,88526912.6851751
891,46575272.773965928
2,1, 7,21, 0, 4,50.00,60.00,SummerDesignDay
8,13.517617463812285
10,88192035.50948482
891,2472270.795227657
2,1, 7,21, 0, 4, 0.00,60.00,SummerDesignDay
1125,22.506157516517307
1165,22.909076971769978
1205,23.50720342828537
1245,22.10198117420592
1285,23.938224356622297
1325,23.92843452838346
1365,23.970947953711485
1405,23.999138111862267
1445,23.237344355698956
1485,23.17391113850529
1525,23.607983328691988
1565,23.259729185461067
1605,21.045977154597137
1645,22.514399889859605
1685,23.1133541189601
1725,21.721127291609816
1765,23.99957544307581
1805,23.88935422548856
1845,23.887733630767117
1885,23.904043475887403
2,1, 7,21, 0, 5, 0.00,10.00,SummerDesignDay
8,13.50185415824011
10,87917919.29121426
891,46699565.9780235
2,1, 7,21, 0, 5,10.00,20.00,SummerDesignDay
8,13.486076034032447
10,87930650.27178267
891,2633291.7187952229
2,1, 7,21, 0, 5,20.00,30.00,SummerDesignDay
8,13.470289340350983
10,87932085.76357657
891,46791654.69467044
2,1, 7,21, 0, 5,30.00,40.00,SummerDesignDay
8,13.454493322631063
10,87970582.12293652
891,2790363.499503472
2,1, 7,21, 0, 5,40.00,50.00,SummerDesignDay
8,13.438688835118548
10,88020084.55611253
891,46873384.13203312
2,1, 7,21, 0, 5,50.00,60.00,SummerDesignDay
8,13.422888173889437
10,88065012.95327875
891,19027495.139742946
2,1, 7,21, 0, 5, 0.00,60.00,SummerDesignDay
1125,22.421292633006506
1165,22.746630468402186
1205,23.3995472557534
1245,21.91431820527646
1285,23.782507903335547
1325,23.852120369022477
1365,23.911518876737508
1405,23.99934638441152
1445,22.984808396978726
1485,23.00001124667263
1525,23.350537400110665
1565,23.134451620896134
1605,20.8136264023262
1645,22.460763380624628
1685,22.854187866057488
1725,21.478833574340827
1765,23.999617361700243
1805,23.88929907962411
1845,23.88780139973402
1885,23.903545097795968
2,1, 7,21, 0, 6, 0.00,10.00,SummerDesignDay
8,13.438688835118548
10,88441128.77715069
891,31495537.495855884
2,1, 7,21, 0, 6,10.00,20.00,SummerDesignDay
8,13.454493322631063
10,89025376.24108242
891,47882376.12131173
2,1, 7,21, 0, 6,20.00,30.00,SummerDesignDay
8,13.470289340350983
10,89198295.56695315
891,47911560.237554978
2,1, 7,21, 0, 6,30.00,40.00,SummerDesignDay
8,13.486076034032447
10,89374719.97264397
891,2649017.8005856687
2,1, 7,21, 0, 6,40.00,50.00,SummerDesignDay
8,13.50185415824011
10,89544413.62027982
891,47607580.75444427
2,1, 7,21, 0, 6,50.00,60.00,SummerDesignDay
8,13.517617463812285
10,89714949.93937998
891,47582672.602430019
2,1, 7,21, 0, 6, 0.00,60.00,SummerDesignDay
1125,22.341419693102254
1165,22.654607180666294
1205,23.323445200904783
1245,21.810901361058247
1285,23.741868440657585
1325,23.778455402860769
1365,24.251260311285859
1405,23.99935855409511
1445,22.824188636899309
1485,22.974513600497564
1525,23.198842641402213
1565,23.455765988344856
1605,20.866386889880788
1645,23.337166692233678
1685,22.879740195615708
1725,21.542155890778124
1765,23.999631985192683
1805,23.890387376144589
1845,23.888213576114415
1885,23.903128327696938
2,1, 7,21, 0, 7, 0.00,10.00,SummerDesignDay
8,13.572736920571789
10,98098374.31141745
891,50071823.306931618
2,1, 7,21, 0, 7,10.00,20.00,SummerDesignDay
8,13.627748229152554
10,99637411.99400442
891,50158500.6031149
2,1, 7,21, 0, 7,20.00,30.00,SummerDesignDay
8,13.682651961920304
10,100076146.84649542
891,50448882.548341918
2,1, 7,21, 0, 7,30.00,40.00,SummerDesignDay
8,13.737448093244995
10,100527925.44459552
891,97251228.68954686
2,1, 7,21, 0, 7,40.00,50.00,SummerDesignDay
8,13.792137011831216
10,101420623.47150287
891,49226478.06913592
2,1, 7,21, 0, 7,50.00,60.00,SummerDesignDay
8,13.846719282840333
10,102110823.47924014
891,48984021.86155799
2,1, 7,21, 0, 7, 0.00,60.00,SummerDesignDay
1125,22.267387377164807
1165,22.709773936892206
1205,23.26148819446786
1245,21.883522990348614
1285,23.923793766325436
1325,23.707796799058383
1365,24.762478420995206
1405,23.999086358006083
1445,22.832136864330356
1485,22.985559773517879
1525,23.217338429980797
1565,23.784235478952544
1605,21.16724124135401
1645,24.67265532174906
1685,23.241272045561414
1725,21.986447560722799
1765,23.999470286726447
1805,23.891056101766425
1845,23.88754546716399
1885,23.902812126021308
2,1, 7,21, 0, 8, 0.00,10.00,SummerDesignDay
8,13.978831900527043
10,151527342.85900105
891,109860930.00311363
2,1, 7,21, 0, 8,10.00,20.00,SummerDesignDay
8,14.110321014287419
10,151561765.98716907
891,88564277.78697354
2,1, 7,21, 0, 8,20.00,30.00,SummerDesignDay
8,14.241191509616986
10,154096872.83716936
891,76114368.75943142
2,1, 7,21, 0, 8,30.00,40.00,SummerDesignDay
8,14.371447531304272
10,158795509.05694119
891,109721035.68228272
2,1, 7,21, 0, 8,40.00,50.00,SummerDesignDay
8,14.501093766564925
10,157668501.5535192
891,109753046.05720614
2,1, 7,21, 0, 8,50.00,60.00,SummerDesignDay
8,14.630134792273804
10,159967691.55078794
891,109802753.03860092
2,1, 7,21, 0, 8, 0.00,60.00,SummerDesignDay
1125,22.516355345738267
1165,23.343557317599907
1205,23.210479279295958
1245,22.246573209504616
1285,23.99847220302605
1325,23.929262900171719
1365,23.927544377334326
1405,23.99875962449143
1445,23.112488998582337
1485,23.293755302136863
1525,23.511181635043746
1565,23.999849001829465
1605,21.819080547594486
1645,24.02750391810395
1685,23.89104121169606
1725,22.980783507607574
1765,23.998674142355595
1805,23.904970544287044
1845,23.900498064180906
1885,23.9144788136192
2,1, 7,21, 0, 9, 0.00,10.00,SummerDesignDay
8,14.773641492809972
10,255577994.83735565
891,122354096.53288692
2,1, 7,21, 0, 9,10.00,20.00,SummerDesignDay
8,14.91640948124148
10,264488312.37779919
891,123947914.03767649
2,1, 7,21, 0, 9,20.00,30.00,SummerDesignDay
8,15.05843890714102
10,269209196.5429186
891,124021948.1748547
2,1, 7,21, 0, 9,30.00,40.00,SummerDesignDay
8,15.199735893563798
10,274449154.7075463
891,140491733.87945426
2,1, 7,21, 0, 9,40.00,50.00,SummerDesignDay
8,15.340306256439395
10,278165204.25847497
891,154647809.9830771
2,1, 7,21, 0, 9,50.00,60.00,SummerDesignDay
8,15.48015101768072
10,284200722.90910169
891,138772278.9034505
2,1, 7,21, 0, 9, 0.00,60.00,SummerDesignDay
1125,23.68397841413142
1165,23.991643126406037
1205,23.17547661444607
1245,23.46627806611382
1285,23.998657125477626
1325,23.999868753750936
1365,23.959794022929136
1405,23.998473872155289
1445,23.701486749926688
1485,23.86418591806229
1525,23.95414638876748
1565,23.999266912387254
1605,22.848004826359884
1645,23.999474707694547
1685,23.999792471150387
1725,23.975574921343765
1765,23.998555914328624
1805,23.91500196835963
1845,23.911289969938364
1885,23.924492119253644
2,1, 7,21, 0,10, 0.00,10.00,SummerDesignDay
8,15.60467292907716
10,346778946.51887217
891,142819453.03828819
2,1, 7,21, 0,10,10.00,20.00,SummerDesignDay
8,15.72862731650033
10,353889459.53860679
891,190055037.7417398
2,1, 7,21, 0,10,20.00,30.00,SummerDesignDay
8,15.852017409284228
10,361174536.34132
891,173245996.30092196
2,1, 7,21, 0,10,30.00,40.00,SummerDesignDay
8,15.974848118364367
10,362830046.3415722
891,153287546.58113317
2,1, 7,21, 0,10,40.00,50.00,SummerDesignDay
8,16.097123145563505
10,368201473.2203193
891,210065550.70627354
2,1, 7,21, 0,10,50.00,60.00,SummerDesignDay
8,16.218846351168599
10,372334470.2802303
891,145198606.5286834
2,1, 7,21, 0,10, 0.00,60.00,SummerDesignDay
1125,23.999418895026339
1165,23.999188553051217
1205,23.76264843860055
1245,23.99402737403339
1285,23.998674187891156
1325,23.99953998994229
1365,24.013613179196758
1405,23.998388834881259
1445,23.999544915435377
1485,23.999531435812714
1525,23.99962165781153
1565,23.99872220566834
1605,23.9329853203496
1645,23.99924341939626
1685,23.999525836037468
1725,23.99936986741342
1765,23.998759464176293
1805,23.907704385119329
1845,23.903233455385164
1885,23.918034671171566
2,1, 7,21, 0,11, 0.00,10.00,SummerDesignDay
8,16.325793027093189
10,398577103.6267432
891,173612055.2603859
2,1, 7,21, 0,11,10.00,20.00,SummerDesignDay
8,16.432322158488288
10,402341922.2744403
891,178644842.9479878
2,1, 7,21, 0,11,20.00,30.00,SummerDesignDay
8,16.538424180249178
10,406216976.00773569
891,140635810.86578528
2,1, 7,21, 0,11,30.00,40.00,SummerDesignDay
8,16.644108396469087
10,410049951.64762136
891,187883994.6518515
2,1, 7,21, 0,11,40.00,50.00,SummerDesignDay
8,16.749376736593655
10,413875074.11981
891,163796246.62860904
2,1, 7,21, 0,11,50.00,60.00,SummerDesignDay
8,16.854232613237156
10,417663369.68610599
891,140827879.29539828
2,1, 7,21, 0,11, 0.00,60.00,SummerDesignDay
1125,23.999047029475454
1165,23.99905717063224
1205,23.99930058772868
1245,24.08577451852643
1285,23.998554290627579
1325,23.999218598591399
1365,24.073975939786249
1405,23.998380773869468
1445,23.998891293702476
1485,23.998776373146585
1525,23.999044126702715
1565,23.998179153708518
1605,23.999151586431027
1645,23.998827016241067
1685,23.999065685662676
1725,23.99878647818294
1765,23.998267785675784
1805,23.89225558063677
1845,23.886989505884058
1885,23.904981870324474
2,1, 7,21, 0,12, 0.00,10.00,SummerDesignDay
8,16.92390823520069
10,436580267.87616148
891,158237288.01193504
2,1, 7,21, 0,12,10.00,20.00,SummerDesignDay
8,16.99340178950456
10,438317191.41729149
891,151845566.07663385
2,1, 7,21, 0,12,20.00,30.00,SummerDesignDay
8,17.06272006743463
10,441273618.0508371
891,123268605.5729022
2,1, 7,21, 0,12,30.00,40.00,SummerDesignDay
8,17.131853229172639
10,444100823.92737677
891,123239533.6702446
2,1, 7,21, 0,12,40.00,50.00,SummerDesignDay
8,17.200807172194087
10,446863875.3121191
891,123305293.99809258
2,1, 7,21, 0,12,50.00,60.00,SummerDesignDay
8,17.269582116758607
10,449560331.70468077
891,123370830.07565165
2,1, 7,21, 0,12, 0.00,60.00,SummerDesignDay
1125,23.99881882770062
1165,23.998954690290277
1205,23.99876695830045
1245,24.16140817677329
1285,23.998622846580376
1325,23.999029884448448
1365,24.12275827330563
1405,23.998697528593067
1445,23.998316174575135
1485,23.998206942883344
1525,23.998613234063425
1565,23.99790123337466
1605,23.998630526536627
1645,23.998562404995984
1685,23.998768996639354
1725,23.998557302844266
1765,23.99827623170208
1805,23.892190224885327
1845,23.887346577132964
1885,23.906307025626054
2,1, 7,21, 0,13, 0.00,10.00,SummerDesignDay
8,17.32447360221357
10,452236905.430573
891,159896333.3973306
2,1, 7,21, 0,13,10.00,20.00,SummerDesignDay
8,17.379251291230806
10,454710251.9087128
891,161219194.79666619
2,1, 7,21, 0,13,20.00,30.00,SummerDesignDay
8,17.433921312061729
10,457065864.1685403
891,128589677.6142179
2,1, 7,21, 0,13,30.00,40.00,SummerDesignDay
8,17.488473222557489
10,459345276.97172287
891,128718375.49575472
2,1, 7,21, 0,13,40.00,50.00,SummerDesignDay
8,17.542913447755134
10,461902683.958952
891,152791582.15372939
2,1, 7,21, 0,13,50.00,60.00,SummerDesignDay
8,17.59724609886134
10,463959825.43418648
891,169066519.23006008
2,1, 7,21, 0,13, 0.00,60.00,SummerDesignDay
1125,23.99887534431602
1165,23.99907384956231
1205,23.998310112900645
1245,24.215712769570457
1285,23.99855293463635
1325,23.999089198179975
1365,24.158641755619887
1405,23.99891464888472
1445,23.9977084763991
1485,23.997602429744366
1525,23.998084483010957
1565,23.99813820790098
1605,23.998366575262677
1645,23.99799233524322
1685,23.99827267494038
1725,23.998520239657269
1765,23.9985183545926
1805,23.892295678402417
1845,23.88759232601771
1885,23.907342792888234
2,1, 7,21, 0,14, 0.00,10.00,SummerDesignDay
8,17.6311450462694
10,463815341.3043638
891,137920835.46408675
2,1, 7,21, 0,14,10.00,20.00,SummerDesignDay
8,17.665000449016245
10,466439441.115311
891,158141499.1812138
2,1, 7,21, 0,14,20.00,30.00,SummerDesignDay
8,17.698812743128934
10,467722778.614976
891,189848067.37099908
2,1, 7,21, 0,14,30.00,40.00,SummerDesignDay
8,17.732582050940107
10,469107915.0945834
891,139072631.30560435
2,1, 7,21, 0,14,40.00,50.00,SummerDesignDay
8,17.766307345121004
10,470469677.5573026
891,167296652.27967704
2,1, 7,21, 0,14,50.00,60.00,SummerDesignDay
8,17.79999023167558
10,471731665.4792343
891,180667835.86889709
2,1, 7,21, 0,14, 0.00,60.00,SummerDesignDay
1125,23.99892825341476
1165,23.999108657410628
1205,23.998150194262874
1245,24.253697599051426
1285,23.99842980032641
1325,23.99912980513832
1365,24.18377179155466
1405,23.99891706889244
1445,23.99714776313977
1485,23.99700589337995
1525,23.997632358824885
1565,23.998334932112586
1605,23.998274275380223
1645,23.99755065678184
1685,23.9978617466875
1725,23.998442459335025
1765,23.99874228143163
1805,23.892423875172566
1845,23.887737124742757
1885,23.90794752838794
2,1, 7,21, 0,15, 0.00,10.00,SummerDesignDay
8,17.79999023167558
10,469481359.7941358
891,136250328.81869904
2,1, 7,21, 0,15,10.00,20.00,SummerDesignDay
8,17.79999023167558
10,469348100.2121411
891,162898604.27117834
2,1, 7,21, 0,15,20.00,30.00,SummerDesignDay
8,17.79999023167558
10,469450075.7052723
891,177186518.63632996
2,1, 7,21, 0,15,30.00,40.00,SummerDesignDay
8,17.79999023167558
10,469524083.37117049
891,135924617.3187301
2,1, 7,21, 0,15,40.00,50.00,SummerDesignDay
8,17.79999023167558
10,469491357.9744524
891,157929759.05786336
2,1, 7,21, 0,15,50.00,60.00,SummerDesignDay
8,17.79999023167558
10,469317607.5365828
891,182171877.48984785
2,1, 7,21, 0,15, 0.00,60.00,SummerDesignDay
1125,23.998809168974039
1165,23.9989027443622
1205,23.998330601032437
1245,24.27780838323515
1285,23.998408973423236
1325,23.99901569367859
1365,24.192574445735969
1405,23.998656903889186
1445,23.997292573586237
1485,23.997164556892625
1525,23.997559095970375
1565,23.998089333117809
1605,23.99856572547924
1645,23.997504720921204
1685,23.99754058967979
1725,23.99850143117942
1765,23.998864654697959
1805,23.89246895110115
1845,23.887886372395088
1885,23.90805031239525
2,1, 7,21, 0,16, 0.00,10.00,SummerDesignDay
8,17.759562446305357
10,464237455.81390127
891,126493552.73132146
2,1, 7,21, 0,16,10.00,20.00,SummerDesignDay
8,17.71907809634183
10,461755611.2397237
891,125625248.30226518
2,1, 7,21, 0,16,20.00,30.00,SummerDesignDay
8,17.67853788661001
10,460071666.01235499
891,125724737.68625948
2,1, 7,21, 0,16,30.00,40.00,SummerDesignDay
8,17.63791796367351
10,458240559.11779096
891,161143204.01303108
2,1, 7,21, 0,16,40.00,50.00,SummerDesignDay
8,17.59724609886134
10,456322452.8921712
891,152988633.38204489
2,1, 7,21, 0,16,50.00,60.00,SummerDesignDay
8,17.55650676726033
10,454350048.0174946
891,125521652.36089546
2,1, 7,21, 0,16, 0.00,60.00,SummerDesignDay
1125,23.99872362957701
1165,23.99864671404761
1205,23.998710939767539
1245,24.276558220412594
1285,23.998406159045307
1325,23.998958758697144
1365,24.179635491917208
1405,23.998467919447366
1445,23.998001931628875
1485,23.9979088521772
1525,23.997909593302255
1565,23.997974970293528
1605,23.99906121299831
1645,23.997596101063239
1685,23.997289365044435
1725,23.998633888686415
1765,23.998718495812267
1805,23.892668505378649
1845,23.888146138850215
1885,23.907533016472156
2,1, 7,21, 0,17, 0.00,10.00,SummerDesignDay
8,17.50209486331892
10,453770959.0830187
891,118105668.32432087
2,1, 7,21, 0,17,10.00,20.00,SummerDesignDay
8,17.447570789624618
10,450693133.361459
891,117348705.03987746
2,1, 7,21, 0,17,20.00,30.00,SummerDesignDay
8,17.392929544208135
10,448362705.4683447
891,117355037.09506683
2,1, 7,21, 0,17,30.00,40.00,SummerDesignDay
8,17.33818013976614
10,445906822.87584546
891,117360160.38322507
2,1, 7,21, 0,17,40.00,50.00,SummerDesignDay
8,17.283317298559309
10,443500748.68288126
891,117365219.53976141
2,1, 7,21, 0,17,50.00,60.00,SummerDesignDay
8,17.22833552437677
10,441048728.8987694
891,117370248.01648812
2,1, 7,21, 0,17, 0.00,60.00,SummerDesignDay
1125,23.998726167945138
1165,23.99855701324984
1205,23.998925786121306
1245,24.20596486821655
1285,23.998417882264957
1325,23.998976165640188
1365,24.15170149588744
1405,23.9983929830419
1445,23.998476627713634
1485,23.99843072459383
1525,23.998338021032479
1565,23.998167178866685
1605,23.99939017176962
1645,23.997701890736058
1685,23.997220475373067
1725,23.998758183943804
1765,23.99844355983215
1805,23.89276899625253
1845,23.888303700604089
1885,23.90703463354018
2,1, 7,21, 0,18, 0.00,10.00,SummerDesignDay
8,17.159453019160176
10,428707117.7062698
891,115245400.10948324
2,1, 7,21, 0,18,10.00,20.00,SummerDesignDay
8,17.090391773337136
10,425522028.77481189
891,115010739.30816426
2,1, 7,21, 0,18,20.00,30.00,SummerDesignDay
8,17.021151077964786
10,422553082.08172598
891,115008615.52292398
2,1, 7,21, 0,18,30.00,40.00,SummerDesignDay
8,16.951729380464653
10,419670133.7800053
891,115006753.20858316
2,1, 7,21, 0,18,40.00,50.00,SummerDesignDay
8,16.882126503829249
10,416834471.9159059
891,115004884.57996209
2,1, 7,21, 0,18,50.00,60.00,SummerDesignDay
8,16.812341807494034
10,414029358.6383821
891,115002999.16162634
2,1, 7,21, 0,18, 0.00,60.00,SummerDesignDay
1125,23.99891568636342
1165,23.998659606711184
1205,23.999004129203798
1245,24.143149849612443
1285,23.99830287923795
1325,23.999159142203554
1365,24.115892665927335
1405,23.99821800866624
1445,23.99857000115851
1485,23.998546231278558
1525,23.998378007395073
1565,23.99869651846126
1605,23.999360461650885
1645,23.99817292141284
1685,23.997661779999477
1725,23.999045477053874
1765,23.998102382730428
1805,23.892612395706626
1845,23.8882682383272
1885,23.9066643577588
2,1, 7,21, 0,19, 0.00,10.00,SummerDesignDay
8,16.707321072823203
10,369107979.97665378
891,114916679.41631
2,1, 7,21, 0,19,10.00,20.00,SummerDesignDay
8,16.601881826644556
10,364791097.9032044
891,114905465.81410076
2,1, 7,21, 0,19,20.00,30.00,SummerDesignDay
8,16.496030555252849
10,360967162.5979616
891,114903551.52159702
2,1, 7,21, 0,19,30.00,40.00,SummerDesignDay
8,16.389760181474104
10,357366728.38987448
891,114901606.47912242
2,1, 7,21, 0,19,40.00,50.00,SummerDesignDay
8,16.283067654262039
10,353860422.7180541
891,114899640.99865848
2,1, 7,21, 0,19,50.00,60.00,SummerDesignDay
8,16.17595057957811
10,350407154.4570555
891,114897655.70275387
2,1, 7,21, 0,19, 0.00,60.00,SummerDesignDay
1125,23.999355414807217
1165,23.999310312670404
1205,23.998804493026396
1245,24.064922608023286
1285,23.998225250153668
1325,23.999575435799064
1365,24.065583601953965
1405,23.99817180568896
1445,23.998011277192224
1485,23.99799111723483
1525,23.997812880058619
1565,23.999418729793093
1605,23.999154334827315
1645,23.99881177606389
1685,23.998425231174804
1725,23.999694657839837
1765,23.997163518005114
1805,23.892341180693607
1845,23.888297530547719
1885,23.906034571600789
2,1, 7,21, 0,20, 0.00,10.00,SummerDesignDay
8,16.097123145563505
10,329995436.7546793
891,118550510.13955087
2,1, 7,21, 0,20,10.00,20.00,SummerDesignDay
8,16.018070242471564
10,328207426.34766247
891,119338591.94356288
2,1, 7,21, 0,20,20.00,30.00,SummerDesignDay
8,15.938779752340516
10,325883395.99971136
891,118991244.28488387
2,1, 7,21, 0,20,30.00,40.00,SummerDesignDay
8,15.85926152575189
10,324724702.98481318
891,119006883.0414998
2,1, 7,21, 0,20,40.00,50.00,SummerDesignDay
8,15.779503718563929
10,320729891.24779769
891,119023756.70915008
2,1, 7,21, 0,20,50.00,60.00,SummerDesignDay
8,15.699515709672767
10,318801482.9281072
891,119040850.06074889
2,1, 7,21, 0,20, 0.00,60.00,SummerDesignDay
1125,23.667784683002727
1165,23.999801347539166
1205,23.998710254714344
1245,23.986660847755919
1285,23.998667499227979
1325,23.999791062244598
1365,24.009155728203795
1405,23.99826655024469
1445,23.997509079098376
1485,23.997434001084355
1525,23.997531213153907
1565,23.999828057818335
1605,23.99895889619592
1645,23.999608257363204
1685,23.999459993414779
1725,25.142239695312953
1765,23.99727455644347
1805,23.915342955125725
1845,23.91297811851129
1885,23.926513944866444
2,1, 7,21, 0,21, 0.00,10.00,SummerDesignDay
8,15.63389147320404
10,317459383.96581366
891,165740105.6054595
2,1, 7,21, 0,21,10.00,20.00,SummerDesignDay
8,15.56810827419793
10,316461121.4172781
891,186309400.4456226
2,1, 7,21, 0,21,20.00,30.00,SummerDesignDay
8,15.502170882753524
10,313879797.2161293
891,142027638.1482885
2,1, 7,21, 0,21,30.00,40.00,SummerDesignDay
8,15.436068032613852
10,311244548.34920266
891,188634832.08172528
2,1, 7,21, 0,21,40.00,50.00,SummerDesignDay
8,15.369804371206009
10,308768683.59369757
891,166562235.409952
2,1, 7,21, 0,21,50.00,60.00,SummerDesignDay
8,15.303384603594449
10,306203507.79830738
891,145075683.0347162
2,1, 7,21, 0,21, 0.00,60.00,SummerDesignDay
1125,23.510937802792158
1165,23.999840164348126
1205,23.998013312289204
1245,23.927699856337939
1285,23.99837031532971
1325,23.999756363630259
1365,23.9760950452129
1405,23.997352675766519
1445,23.996055228215388
1485,23.996073524797607
1525,23.996573274288698
1565,23.999872223030335
1605,23.998314112263658
1645,23.99967178491941
1685,23.999641239183324
1725,25.138736758915618
1765,23.99699416535968
1805,23.891082445533596
1845,23.88797488976022
1885,23.90607094053712
2,1, 7,21, 0,22, 0.00,10.00,SummerDesignDay
8,15.236797685071274
10,245890974.4540511
891,192559004.1789521
2,1, 7,21, 0,22,10.00,20.00,SummerDesignDay
8,15.170047891787942
10,245052537.94716297
891,144213446.62481175
2,1, 7,21, 0,22,20.00,30.00,SummerDesignDay
8,15.103134826860483
10,244601044.04642583
891,135554536.20588578