Program Version,EnergyPlus, Version 8.9.0-eba93e8e1b, YMD=2019.03.20 17:53
1,5,Environment Title[],Latitude[deg],Longitude[deg],Time Zone[],Elevation[m]
2,8,Day of Simulation[],Month[],Day of Month[],DST Indicator[1=yes 0=no],Hour[],StartMinute[],EndMinute[],DayType
3,5,Cumulative Day of Simulation[],Month[],Day of Month[],DST Indicator[1=yes 0=no],DayType  ! When Daily Report Variables Requested
4,2,Cumulative Days of Simulation[],Month[]  ! When Monthly Report Variables Requested
5,1,Cumulative Days of Simulation[] ! When Run Period Report Variables Requested
6,1,Calendar Year of Simulation[] ! When Annual Report Variables Requested
7,9,Environment,Site Outdoor Air Drybulb Temperature [C] !Monthly [Value,Min,Day,Hour,Minute,Max,Day,Hour,Minute]
8,1,Environment,Site Outdoor Air Wetbulb Temperature [C] !TimeStep
706,1,CORR. < 2.4M WIDE-SCH-B-SPACE FUNCTION ZN,Zone Air Temperature [C] !Hourly
707,7,CORR. < 2.4M WIDE-SCH-B-SPACE FUNCTION ZN,Zone Air Relative Humidity [%] !Daily [Value,Min,Hour,Minute,Max,Hour,Minute]
746,1,CORR. < 2.4M WIDE-SCH-C-SPACE FUNCTION ZN,Zone Air Temperature [C] !Hourly
747,7,CORR. < 2.4M WIDE-SCH-C-SPACE FUNCTION ZN,Zone Air Relative Humidity [%] !Daily [Value,Min,Hour,Minute,Max,Hour,Minute]
786,1,CORR. < 2.4M WIDE-SCH-D-SPACE FUNCTION ZN,Zone Air Temperature [C] !Hourly
787,7,CORR. < 2.4M WIDE-SCH-D-SPACE FUNCTION ZN,Zone Air Relative Humidity [%] !Daily [Value,Min,Hour,Minute,Max,Hour,Minute]
826,1,CORR. < 2.4M WIDE-SCH-E-SPACE FUNCTION ZN,Zone Air Temperature [C] !Hourly
827,7,CORR. < 2.4M WIDE-SCH-E-SPACE FUNCTION ZN,Zone Air Relative Humidity [%] !Daily [Value,Min,Hour,Minute,Max,Hour,Minute]
866,1,CORR. < 2.4M WIDE-SCH-F-SPACE FUNCTION ZN,Zone Air Temperature [C] !Hourly
867,7,CORR. < 2.4M WIDE-SCH-F-SPACE FUNCTION ZN,Zone Air Relative Humidity [%] !Daily [Value,Min,Hour,Minute,Max,Hour,Minute]
906,1,CORR. < 2.4M WIDE-SCH-G-SPACE FUNCTION ZN,Zone Air Temperature [C] !Hourly
907,7,CORR. < 2.4M WIDE-SCH-G-SPACE FUNCTION ZN,Zone Air Relative Humidity [%] !Daily [Value,Min,Hour,Minute,Max,Hour,Minute]
946,1,CORR. < 2.4M WIDE-SCH-H-SPACE FUNCTION ZN,Zone Air Temperature [C] !Hourly
947,7,CORR. < 2.4M WIDE-SCH-H-SPACE FUNCTION ZN,Zone Air Relative Humidity [%] !Daily [Value,Min,Hour,Minute,Max,Hour,Minute]
986,1,CORR. < 2.4M WIDE-SCH-I-SPACE FUNCTION ZN,Zone Air Temperature [C] !Hourly
987,7,CORR. < 2.4M WIDE-SCH-I-SPACE FUNCTION ZN,Zone Air Relative Humidity [%] !Daily [Value,Min,Hour,Minute,Max,Hour,Minute]
1026,1,CORR. >= 2.4M WIDE-SCH-A-SPACE FUNCTION ZN,Zone Air Temperature [C] !Hourly
1027,7,CORR. >= 2.4M WIDE-SCH-A-SPACE FUNCTION ZN,Zone Air Relative Humidity [%] !Daily [Value,Min,Hour,Minute,Max,Hour,Minute]
1066,1,CORR. >= 2.4M WIDE-SCH-B-SPACE FUNCTION ZN,Zone Air Temperature [C] !Hourly
1067,7,CORR. >= 2.4M WIDE-SCH-B-SPACE FUNCTION ZN,Zone Air Relative Humidity [%] !Daily [Value,Min,Hour,Minute,Max,Hour,Minute]
1106,1,CORR. >= 2.4M WIDE-SCH-C-SPACE FUNCTION ZN,Zone Air Temperature [C] !Hourly
1107,7,CORR. >= 2.4M WIDE-SCH-C-SPACE FUNCTION ZN,Zone Air Relative Humidity [%] !Daily [Value,Min,Hour,Minute,Max,Hour,Minute]
1146,1,CORR. >= 2.4M WIDE-SCH-D-SPACE FUNCTION ZN,Zone Air Temperature [C] !Hourly
1147,7,CORR. >= 2.4M WIDE-SCH-D-SPACE FUNCTION ZN,Zone Air Relative Humidity [%] !Daily [Value,Min,Hour,Minute,Max,Hour,Minute]
1186,1,CORR. >= 2.4M WIDE-SCH-E-SPACE FUNCTION ZN,Zone Air Temperature [C] !Hourly
1187,7,CORR. >= 2.4M WIDE-SCH-E-SPACE FUNCTION ZN,Zone Air Relative Humidity [%] !Daily [Value,Min,Hour,Minute,Max,Hour,Minute]
1226,1,CORR. >= 2.4M WIDE-SCH-F-SPACE FUNCTION ZN,Zone Air Temperature [C] !Hourly
1227,7,CORR. >= 2.4M WIDE-SCH-F-SPACE FUNCTION ZN,Zone Air Relative Humidity [%] !Daily [Value,Min,Hour,Minute,Max,Hour,Minute]
1266,1,CORR. >= 2.4M WIDE-SCH-G-SPACE FUNCTION ZN,Zone Air Temperature [C] !Hourly
1267,7,CORR. >= 2.4M WIDE-SCH-G-SPACE FUNCTION ZN,Zone Air Relative Humidity [%] !Daily [Value,Min,Hour,Minute,Max,Hour,Minute]
1306,1,CORR. >= 2.4M WIDE-SCH-H-SPACE FUNCTION ZN,Zone Air Temperature [C] !Hourly
1307,7,CORR. >= 2.4M WIDE-SCH-H-SPACE FUNCTION ZN,Zone Air Relative Humidity [%] !Daily [Value,Min,Hour,Minute,Max,Hour,Minute]
1346,1,CORR. >= 2.4M WIDE-SCH-I-SPACE FUNCTION ZN,Zone Air Temperature [C] !Hourly
1347,7,CORR. >= 2.4M WIDE-SCH-I-SPACE FUNCTION ZN,Zone Air Relative Humidity [%] !Daily [Value,Min,Hour,Minute,Max,Hour,Minute]
1386,1,COURTHOUSE - CELL-SPACE FUNCTION ZN,Zone Air Temperature [C] !Hourly
1387,7,COURTHOUSE - CELL-SPACE FUNCTION ZN,Zone Air Relative Humidity [%] !Daily [Value,Min,Hour,Minute,Max,Hour,Minute]
1426,1,COURTHOUSE - CHAMBERS-SPACE FUNCTION ZN,Zone Air Temperature [C] !Hourly
1427,7,COURTHOUSE - CHAMBERS-SPACE FUNCTION ZN,Zone Air Relative Humidity [%] !Daily [Value,Min,Hour,Minute,Max,Hour,Minute]
1466,1,COURTHOUSE - COURTROOM-SPACE FUNCTION ZN,Zone Air Temperature [C] !Hourly
1467,7,COURTHOUSE - COURTROOM-SPACE FUNCTION ZN,Zone Air Relative Humidity [%] !Daily [Value,Min,Hour,Minute,Max,Hour,Minute]
10,1,Electricity:Facility [J] !TimeStep
1617,1,DistrictCooling:Facility [J] !TimeStep
1580,1,DistrictHeating:Facility [J] !TimeStep
End of Data Dictionary
1,FORT MCMURRAY AP ANN CLG .4% CONDNS DB=>MWB,  56.65,-111.22,  -7.00, 369.10
2,1, 7,21, 0, 1, 0.00,10.00,SummerDesignDay
8,14.218136923962174
10,78884343.45178584
1580,0.0
1617,70171735.35076235
2,1, 7,21, 0, 1,10.00,20.00,SummerDesignDay
8,14.171982153293495
10,78884343.45178584
1580,0.0
1617,68326997.04972467
2,1, 7,21, 0, 1,20.00,30.00,SummerDesignDay
8,14.125744780286427
10,78884343.45178584
1580,0.0
1617,66799419.5000915
2,1, 7,21, 0, 1,30.00,40.00,SummerDesignDay
8,14.079436086331978
10,78884343.45178584
1580,0.0
1617,65303799.03185278
2,1, 7,21, 0, 1,40.00,50.00,SummerDesignDay
8,14.033050387896898
10,78884343.45178584
1580,0.0
1617,63721325.89354107
2,1, 7,21, 0, 1,50.00,60.00,SummerDesignDay
8,13.986581233564835
10,78884343.45178584
1580,0.0
1617,62095323.92600683
2,1, 7,21, 0, 1, 0.00,60.00,SummerDesignDay
706,24.000000000000005
746,23.92667181421999
786,23.461875402247818
826,25.103125130945896
866,23.99999999999999
906,24.0
946,24.0
986,24.381442347581709
1026,25.106912860529737
1066,24.000000000000005
1106,24.314992856067304
1146,24.33299327502034
1186,25.52489459784117
1226,24.000000000000005
1266,24.00000000000001
1306,24.0
1346,24.431007912082039
1386,24.0
1426,25.140233008769305
1466,22.53591306310418
2,1, 7,21, 0, 2, 0.00,10.00,SummerDesignDay
8,13.95555882260429
10,55223915.37786328
1580,0.0
1617,46375752.067997049
2,1, 7,21, 0, 2,10.00,20.00,SummerDesignDay
8,13.924507755336454
10,55223915.37786328
1580,0.0
1617,45363163.41244942
2,1, 7,21, 0, 2,20.00,30.00,SummerDesignDay
8,13.893416042989206
10,55223915.37786328
1580,0.0
1617,44464882.508995439
2,1, 7,21, 0, 2,30.00,40.00,SummerDesignDay
8,13.862289589689029
10,55223915.37786328
1580,0.0
1617,43576050.264035318
2,1, 7,21, 0, 2,40.00,50.00,SummerDesignDay
8,13.831134407608739
10,55223915.37786328
1580,0.0
1617,42697885.82660125
2,1, 7,21, 0, 2,50.00,60.00,SummerDesignDay
8,13.799938415548118
10,55223915.37786328
1580,0.0
1617,41827762.20192852
2,1, 7,21, 0, 2, 0.00,60.00,SummerDesignDay
706,24.415625054156125
746,23.62656409831976
786,23.151880457695556
826,24.94065011951447
866,24.000000000000005
906,24.000000000000026
946,24.00000000000001
986,24.173061065861277
1026,24.950024770778925
1066,24.04828921429302
1106,24.195008895869923
1146,24.229438746132688
1186,25.329711422938897
1226,24.00000000000001
1266,23.953662053764164
1306,24.00000000000001
1346,24.09188512089141
1386,23.99999999999999
1426,24.971081871075446
1466,22.22866159059105
2,1, 7,21, 0, 3, 0.00,10.00,SummerDesignDay
8,13.776521671948676
10,47183982.29440337
1580,0.0
1617,41067022.12143785
2,1, 7,21, 0, 3,10.00,20.00,SummerDesignDay
8,13.753085235778466
10,47183982.29440337
1580,0.0
1617,40309398.49863384
2,1, 7,21, 0, 3,20.00,30.00,SummerDesignDay
8,13.729636002354969
10,47183982.29440337
1580,0.0
1617,39552479.205755587
2,1, 7,21, 0, 3,30.00,40.00,SummerDesignDay
8,13.706147375533054
10,47183982.29440337
1580,0.0
1617,38795594.069689128
2,1, 7,21, 0, 3,40.00,50.00,SummerDesignDay
8,13.682651961920304
10,47183982.29440337
1580,0.0
1617,38038762.4435008
2,1, 7,21, 0, 3,50.00,60.00,SummerDesignDay
8,13.659136670643687
10,47183982.29440337
1580,0.0
1617,37282031.04184077
2,1, 7,21, 0, 3, 0.00,60.00,SummerDesignDay
706,24.0970010345284
746,23.360569938494277
786,22.8778619984441
826,24.792503204108927
866,24.00000000000001
906,24.000000000000019
946,24.00000000000001
986,23.905566712529546
1026,24.812558812600405
1066,23.574677279919386
1106,24.091401735819859
1146,24.12938558789111
1186,25.153964078532217
1226,24.00000000000001
1266,23.8355767093542
1306,24.00000000000001
1346,23.59299785841094
1386,24.000000000000026
1426,24.83153651267345
1466,21.991989560888169
2,1, 7,21, 0, 4, 0.00,10.00,SummerDesignDay
8,13.63560137410855
10,45440246.807518329
1580,0.0
1617,35561772.211997169
2,1, 7,21, 0, 4,10.00,20.00,SummerDesignDay
8,13.612040802606578
10,45440246.807518329
1580,0.0
1617,34690788.49911071
2,1, 7,21, 0, 4,20.00,30.00,SummerDesignDay
8,13.58846620506876
10,45440246.807518329
1580,0.0
1617,33875842.67637378
2,1, 7,21, 0, 4,30.00,40.00,SummerDesignDay
8,13.56487178447336
10,45440246.807518329
1580,0.0
1617,33065009.304171646
2,1, 7,21, 0, 4,40.00,50.00,SummerDesignDay
8,13.541257354069103
10,45440246.807518329
1580,0.0
1617,32259072.891249055
2,1, 7,21, 0, 4,50.00,60.00,SummerDesignDay
8,13.517617463812285
10,45440246.807518329
1580,0.0
1617,31457006.712842756
2,1, 7,21, 0, 4, 0.00,60.00,SummerDesignDay
706,23.64311992204306
746,23.106840463885037
786,22.625847063159616
826,24.64378202252239
866,24.00000000000001
906,24.000000000000005
946,24.00000000000001
986,23.799089767530338
1026,24.68359370291681
1066,23.128837669470756
1106,23.998054594669868
1146,24.03814691110477
1186,24.98625369860675
1226,24.000000000000005
1266,23.724672685325616
1306,24.000000000000005
1346,23.25565571960949
1386,24.000000000000026
1426,24.70314739046673
1466,21.78186749448923
2,1, 7,21, 0, 5, 0.00,10.00,SummerDesignDay
8,13.50185415824011
10,45440246.807518329
1580,0.0
1617,30765997.65088536
2,1, 7,21, 0, 5,10.00,20.00,SummerDesignDay
8,13.486076034032447
10,45440246.807518329
1580,0.0
1617,30821316.70210097
2,1, 7,21, 0, 5,20.00,30.00,SummerDesignDay
8,13.470289340350983
10,45440246.807518329
1580,0.0
1617,30774801.99548751
2,1, 7,21, 0, 5,30.00,40.00,SummerDesignDay
8,13.454493322631063
10,45440246.807518329
1580,0.0
1617,30734352.552081366
2,1, 7,21, 0, 5,40.00,50.00,SummerDesignDay
8,13.438688835118548
10,45440246.807518329
1580,0.0
1617,30617789.298267969
2,1, 7,21, 0, 5,50.00,60.00,SummerDesignDay
8,13.422888173889437
10,45440246.807518329
1580,0.0
1617,30365251.704329309
2,1, 7,21, 0, 5, 0.00,60.00,SummerDesignDay
706,23.44674978705287
746,23.164261199008935
786,22.598545734718646
826,24.491451648347863
866,24.0
906,24.000000000000005
946,24.00000000000001
986,23.71339346898577
1026,24.56677937494236
1066,22.930161902867714
1106,23.90953683249103
1146,23.952119250569024
1186,24.93754626048299
1226,24.0
1266,23.619104988148107
1306,23.999999999999998
1346,23.0409036799627
1386,24.00000000000003
1426,24.691037199505549
1466,21.591833728376128
2,1, 7,21, 0, 6, 0.00,10.00,SummerDesignDay
8,13.438688835118548
10,45440246.807518329
1580,0.0
1617,30423350.15117309
2,1, 7,21, 0, 6,10.00,20.00,SummerDesignDay
8,13.454493322631063
10,45440246.807518329
1580,0.0
1617,30350171.540639625
2,1, 7,21, 0, 6,20.00,30.00,SummerDesignDay
8,13.470289340350983
10,45440246.807518329
1580,0.0
1617,30187510.170618453
2,1, 7,21, 0, 6,30.00,40.00,SummerDesignDay
8,13.486076034032447
10,45440246.807518329
1580,0.0
1617,29984541.122459756
2,1, 7,21, 0, 6,40.00,50.00,SummerDesignDay
8,13.50185415824011
10,45440246.807518329
1580,0.0
1617,29774268.74541732
2,1, 7,21, 0, 6,50.00,60.00,SummerDesignDay
8,13.517617463812285
10,45440246.807518329
1580,0.0
1617,29595956.13075625
2,1, 7,21, 0, 6, 0.00,60.00,SummerDesignDay
706,23.604363509436195
746,24.40014733278383
786,23.05690245927065
826,24.37137136330873
866,24.000000000000005
906,24.000000000000005
946,24.00000000000001
986,23.66187104565343
1026,24.4991981365278
1066,23.039662009348093
1106,23.845905937511519
1146,23.903014858546088
1186,25.357839800336163
1226,23.999999999999998
1266,23.53893346815867
1306,24.000000000000005
1346,23.151487936387669
1386,24.000000000000026
1426,25.118047151527788
1466,21.510350501906914
2,1, 7,21, 0, 7, 0.00,10.00,SummerDesignDay
8,13.572736920571789
10,51203948.83613332
1580,0.0
1617,67376641.7474359
2,1, 7,21, 0, 7,10.00,20.00,SummerDesignDay
8,13.627748229152554
10,51203948.83613332
1580,0.0
1617,32329914.42413863
2,1, 7,21, 0, 7,20.00,30.00,SummerDesignDay
8,13.682651961920304
10,51203948.83613332
1580,0.0
1617,42982972.216568458
2,1, 7,21, 0, 7,30.00,40.00,SummerDesignDay
8,13.737448093244995
10,51203948.83613332
1580,0.0
1617,47960829.562946248
2,1, 7,21, 0, 7,40.00,50.00,SummerDesignDay
8,13.792137011831216
10,51203948.83613332
1580,0.0
1617,49180907.694143678
2,1, 7,21, 0, 7,50.00,60.00,SummerDesignDay
8,13.846719282840333
10,51203948.83613332
1580,0.0
1617,50118510.64500826
2,1, 7,21, 0, 7, 0.00,60.00,SummerDesignDay
706,24.081712728172886
746,25.936100233363747
786,23.432893312667969
826,24.32943264772757
866,24.000000000000005
906,24.00000000000001
946,24.000000000000005
986,23.675116017531665
1026,23.90614170271387
1066,23.45376227201362
1106,23.840889900991575
1146,23.939344807221123
1186,25.89739154895643
1226,24.0
1266,23.628442892417714
1306,24.00000000000001
1346,23.56396310940327
1386,24.00000000000003
1426,23.857745384713977
1466,21.62923763298194
2,1, 7,21, 0, 8, 0.00,10.00,SummerDesignDay
8,13.978831900527043
10,74418130.6290542
1580,4705350.705990986
1617,163859238.0846309
2,1, 7,21, 0, 8,10.00,20.00,SummerDesignDay
8,14.110321014287419
10,74418130.6290542
1580,0.0
1617,91121356.84974836
2,1, 7,21, 0, 8,20.00,30.00,SummerDesignDay
8,14.241191509616986
10,74418130.6290542
1580,0.0
1617,138873854.61425693
2,1, 7,21, 0, 8,30.00,40.00,SummerDesignDay
8,14.371447531304272
10,74418130.6290542
1580,0.0
1617,112378768.92243782
2,1, 7,21, 0, 8,40.00,50.00,SummerDesignDay
8,14.501093766564925
10,74418130.6290542
1580,0.0
1617,120518516.90997833
2,1, 7,21, 0, 8,50.00,60.00,SummerDesignDay
8,14.630134792273804
10,74418130.6290542
1580,0.0
1617,125743732.96155919
2,1, 7,21, 0, 8, 0.00,60.00,SummerDesignDay
706,25.098674904345989
746,23.946953222848668
786,23.953913979325035
826,23.977348719294743
866,23.99999999999999
906,24.00000000000001
946,24.000000000000005
986,23.776023133243709
1026,23.99999999999763
1066,24.383353539642824
1106,23.921946686917697
1146,23.999126211189716
1186,23.920574403068647
1226,24.000000000000005
1266,23.898501246685773
1306,24.0
1346,24.508542749324858
1386,24.000000000000019
1426,23.999999999972915
1466,22.519447986776176
2,1, 7,21, 0, 9, 0.00,10.00,SummerDesignDay
8,14.773641492809972
10,126623321.13573729
1580,0.0
1617,219045532.09081186
2,1, 7,21, 0, 9,10.00,20.00,SummerDesignDay
8,14.91640948124148
10,126623321.13573729
1580,0.0
1617,191585492.89758186
2,1, 7,21, 0, 9,20.00,30.00,SummerDesignDay
8,15.05843890714102
10,126623321.13573729
1580,0.0
1617,219340357.52973659
2,1, 7,21, 0, 9,30.00,40.00,SummerDesignDay
8,15.199735893563798
10,126623321.13573729
1580,0.0
1617,225565607.31572414
2,1, 7,21, 0, 9,40.00,50.00,SummerDesignDay
8,15.340306256439395
10,126623321.13573729
1580,0.0
1617,235817363.50684876
2,1, 7,21, 0, 9,50.00,60.00,SummerDesignDay
8,15.48015101768072
10,126623321.13573729
1580,0.0
1617,246107662.58371068
2,1, 7,21, 0, 9, 0.00,60.00,SummerDesignDay
706,23.95605839257932
746,23.99999999997834
786,23.999999999995486
826,24.000000000000005
866,24.000000000000005
906,24.0
946,24.000000000000005
986,23.990579728226988
1026,24.00000000000001
1066,23.96979031002625
1106,23.999999883438109
1146,24.0
1186,23.99999999999666
1226,24.000000000000005
1266,23.999999997554366
1306,24.000000000000005
1346,26.068699244447687
1386,24.0
1426,24.000000000000019
1466,23.909927947063478
2,1, 7,21, 0,10, 0.00,10.00,SummerDesignDay
8,15.60467292907716
10,152693104.15911839
1580,0.0
1617,276883580.17290028
2,1, 7,21, 0,10,10.00,20.00,SummerDesignDay
8,15.72862731650033
10,152693104.15911839
1580,0.0
1617,288051045.31139966
2,1, 7,21, 0,10,20.00,30.00,SummerDesignDay
8,15.852017409284228
10,152693104.15911839
1580,0.0
1617,297373008.54631057
2,1, 7,21, 0,10,30.00,40.00,SummerDesignDay
8,15.974848118364367
10,152693104.15911839
1580,0.0
1617,306328264.736397
2,1, 7,21, 0,10,40.00,50.00,SummerDesignDay
8,16.097123145563505
10,152693104.15911839
1580,0.0
1617,314943098.2704533
2,1, 7,21, 0,10,50.00,60.00,SummerDesignDay
8,16.218846351168599
10,152693104.15911839
1580,0.0
1617,323064401.99740359
2,1, 7,21, 0,10, 0.00,60.00,SummerDesignDay
706,23.99999999999294
746,24.00000000000006
786,23.99999999999999
826,24.000000000000015
866,24.00000000000001
906,24.00000000000001
946,24.00000000000001
986,24.291608623714294
1026,24.00000000000001
1066,23.99999999999945
1106,24.0
1146,23.999999999999998
1186,24.000000000000033
1226,24.00000000000001
1266,24.0
1306,24.000000000000019
1346,27.89435990843977
1386,24.000000000000033
1426,24.000000000000005
1466,23.999999997406559
2,1, 7,21, 0,11, 0.00,10.00,SummerDesignDay
8,16.325793027093189
10,160830536.43124856
1580,0.0
1617,335055417.45147469
2,1, 7,21, 0,11,10.00,20.00,SummerDesignDay
8,16.432322158488288
10,160830536.43124856
1580,0.0
1617,342779225.79558649
2,1, 7,21, 0,11,20.00,30.00,SummerDesignDay
8,16.538424180249178
10,160830536.43124856
1580,0.0
1617,349878934.644778
2,1, 7,21, 0,11,30.00,40.00,SummerDesignDay
8,16.644108396469087
10,160830536.43124856
1580,0.0
1617,356829491.76255396
2,1, 7,21, 0,11,40.00,50.00,SummerDesignDay
8,16.749376736593655
10,160830536.43124856
1580,0.0
1617,363677596.0753236
2,1, 7,21, 0,11,50.00,60.00,SummerDesignDay
8,16.854232613237156
10,160830536.43124856
1580,0.0
1617,370473878.94079729
2,1, 7,21, 0,11, 0.00,60.00,SummerDesignDay
706,24.00000000000004
746,24.00000000000006
786,23.99999999999997
826,24.000000000000005
866,24.0
906,24.000000000000005
946,24.0
986,24.622841857661006
1026,24.00000000000001
1066,24.000000000000015
1106,24.000000000000005
1146,24.000000000000019
1186,23.99999999999999
1226,24.000000000000005
1266,24.0
1306,24.000000000000015
1346,29.448744802496639
1386,24.000000000000044
1426,24.000000000000044
1466,24.000000000000055
2,1, 7,21, 0,12, 0.00,10.00,SummerDesignDay
8,16.92390823520069
10,163106767.4860935
1580,0.0
1617,377843302.26647517
2,1, 7,21, 0,12,10.00,20.00,SummerDesignDay
8,16.99340178950456
10,163106767.4860935
1580,0.0
1617,383466441.56964388
2,1, 7,21, 0,12,20.00,30.00,SummerDesignDay
8,17.06272006743463
10,163106767.4860935
1580,0.0
1617,388849212.7174563
2,1, 7,21, 0,12,30.00,40.00,SummerDesignDay
8,17.131853229172639
10,163106767.4860935
1580,0.0
1617,394272270.5006159
2,1, 7,21, 0,12,40.00,50.00,SummerDesignDay
8,17.200807172194087
10,163106767.4860935
1580,0.0
1617,399689614.0407771
2,1, 7,21, 0,12,50.00,60.00,SummerDesignDay
8,17.269582116758607
10,163106767.4860935
1580,0.0
1617,405014571.95939078
2,1, 7,21, 0,12, 0.00,60.00,SummerDesignDay
706,24.00000000000001
746,23.999999999999987
786,23.999999999999998
826,24.000000000000005
866,24.00000000000001
906,24.000000000000015
946,24.00000000000001
986,24.97074461025444
1026,24.0
1066,24.000000000000019
1106,24.00000000000001
1146,24.0
1186,24.000000000000019
1226,24.00000000000001
1266,24.0
1306,24.00000000000001
1346,30.69413620504415
1386,24.000000000000047
1426,24.000000000000015
1466,24.00000000000007
2,1, 7,21, 0,13, 0.00,10.00,SummerDesignDay
8,17.32447360221357
10,161363031.99920846
1580,0.0
1617,401827981.36198428
2,1, 7,21, 0,13,10.00,20.00,SummerDesignDay
8,17.379251291230806
10,161363031.99920846
1580,0.0
1617,405884573.333908
2,1, 7,21, 0,13,20.00,30.00,SummerDesignDay
8,17.433921312061729
10,161363031.99920846
1580,0.0
1617,409790143.7850368
2,1, 7,21, 0,13,30.00,40.00,SummerDesignDay
8,17.488473222557489
10,161363031.99920846
1580,0.0
1617,413598874.6447751
2,1, 7,21, 0,13,40.00,50.00,SummerDesignDay
8,17.542913447755134
10,161363031.99920846
1580,0.0
1617,417211145.905868
2,1, 7,21, 0,13,50.00,60.00,SummerDesignDay
8,17.59724609886134
10,161363031.99920846
1580,0.0
1617,420573083.96651217
2,1, 7,21, 0,13, 0.00,60.00,SummerDesignDay
706,24.00000000000001
746,24.000000000000019
786,24.000000000000015
826,24.000000000000019
866,24.000000000000015
906,24.000000000000005
946,24.00000000000004
986,25.199208246163705
1026,24.000000000000005
1066,24.000000000000015
1106,23.99999999999999
1146,24.0
1186,24.000000000000019
1226,24.000000000000015
1266,24.0
1306,24.000000000000005
1346,31.581899053101158
1386,24.000000000000069
1426,24.0
1466,23.99999999999999
2,1, 7,21, 0,14, 0.00,10.00,SummerDesignDay
8,17.6311450462694
10,161363031.99920846
1580,0.0
1617,422643046.2922798
2,1, 7,21, 0,14,10.00,20.00,SummerDesignDay
8,17.665000449016245
10,161363031.99920846
1580,0.0
1617,424664335.9033015
2,1, 7,21, 0,14,20.00,30.00,SummerDesignDay
8,17.698812743128934
10,161363031.99920846
1580,0.0
1617,426567251.87407317
2,1, 7,21, 0,14,30.00,40.00,SummerDesignDay
8,17.732582050940107
10,161363031.99920846
1580,0.0
1617,428355651.1996187
2,1, 7,21, 0,14,40.00,50.00,SummerDesignDay
8,17.766307345121004
10,161363031.99920846
1580,0.0
1617,430047137.4047188
2,1, 7,21, 0,14,50.00,60.00,SummerDesignDay
8,17.79999023167558
10,161363031.99920846
1580,0.0
1617,431634660.0199623
2,1, 7,21, 0,14, 0.00,60.00,SummerDesignDay
706,24.00000000000003
746,24.0
786,24.0
826,24.0
866,24.0
906,24.000000000000005
946,24.000000000000019
986,25.34032059900163
1026,24.000000000000019
1066,23.999999999999987
1106,23.999999999999998
1146,24.000000000000015
1186,24.000000000000015
1226,24.00000000000001
1266,24.0
1306,24.000000000000005
1346,32.205935072578167
1386,24.0
1426,24.00000000000004
1466,24.000000000000026
2,1, 7,21, 0,15, 0.00,10.00,SummerDesignDay
8,17.79999023167558
10,161363031.99920846
1580,0.0
1617,621318664.9170562
2,1, 7,21, 0,15,10.00,20.00,SummerDesignDay
8,17.79999023167558
10,161363031.99920846
1580,0.0
1617,492470543.9278937
2,1, 7,21, 0,15,20.00,30.00,SummerDesignDay
8,17.79999023167558
10,161363031.99920846
1580,0.0
1617,520493141.6922798
2,1, 7,21, 0,15,30.00,40.00,SummerDesignDay
8,17.79999023167558
10,161363031.99920846
1580,0.0
1617,481496050.9141392
2,1, 7,21, 0,15,40.00,50.00,SummerDesignDay
8,17.79999023167558
10,161363031.99920846
1580,0.0
1617,480020901.7048682
2,1, 7,21, 0,15,50.00,60.00,SummerDesignDay
8,17.79999023167558
10,161363031.99920846
1580,0.0
1617,478490555.8278503
2,1, 7,21, 0,15, 0.00,60.00,SummerDesignDay
706,24.00000000000003
746,24.00000000000003
786,24.000000000000005
826,24.00000000000001
866,24.0
906,24.000000000000019
946,24.00000000000003
986,23.904744078331146
1026,24.000000000000005
1066,24.000000000000019
1106,24.0
1146,24.000000000000005
1186,24.000000000000019
1226,24.00000000000001
1266,24.0
1306,24.000000000000005
1346,23.951316428220708
1386,24.000000000000019
1426,24.0
1466,24.000000000000019
2,1, 7,21, 0,16, 0.00,10.00,SummerDesignDay
8,17.759562446305357
10,169209841.6901911
1580,0.0
1617,478709749.7276664
2,1, 7,21, 0,16,10.00,20.00,SummerDesignDay
8,17.71907809634183
10,169209841.6901911
1580,0.0
1617,475504817.2214723
2,1, 7,21, 0,16,20.00,30.00,SummerDesignDay
8,17.67853788661001
10,169209841.6901911
1580,0.0
1617,471672314.60992148
2,1, 7,21, 0,16,30.00,40.00,SummerDesignDay
8,17.63791796367351
10,169209841.6901911
1580,0.0
1617,467629871.11029776
2,1, 7,21, 0,16,40.00,50.00,SummerDesignDay
8,17.59724609886134
10,169209841.6901911
1580,0.0
1617,463382610.6725888
2,1, 7,21, 0,16,50.00,60.00,SummerDesignDay
8,17.55650676726033
10,169209841.6901911
1580,0.0
1617,458930834.2143842
2,1, 7,21, 0,16, 0.00,60.00,SummerDesignDay
706,24.00000000000001
746,24.00000000000004
786,24.00000000000003
826,23.99999999999999
866,24.00000000000001
906,24.000000000000015
946,24.000000000000019
986,24.000000000000005
1026,23.99999999999999
1066,24.000000000000019
1106,24.0
1146,24.000000000000015
1186,24.000000000000019
1226,24.00000000000001
1266,24.0
1306,24.000000000000005
1346,23.999999999998847
1386,23.999999999999998
1426,24.000000000000015
1466,24.000000000000047
2,1, 7,21, 0,17, 0.00,10.00,SummerDesignDay
8,17.50209486331892
10,165722370.71642105
1580,0.0
1617,451574338.66702976
2,1, 7,21, 0,17,10.00,20.00,SummerDesignDay
8,17.447570789624618
10,165722370.71642105
1580,0.0
1617,445846798.3402822
2,1, 7,21, 0,17,20.00,30.00,SummerDesignDay
8,17.392929544208135
10,165722370.71642105
1580,0.0
1617,440159932.68580237
2,1, 7,21, 0,17,30.00,40.00,SummerDesignDay
8,17.33818013976614
10,165722370.71642105
1580,0.0
1617,434345119.446322
2,1, 7,21, 0,17,40.00,50.00,SummerDesignDay
8,17.283317298559309
10,165722370.71642105
1580,0.0
1617,428410131.9782962
2,1, 7,21, 0,17,50.00,60.00,SummerDesignDay
8,17.22833552437677
10,165722370.71642105
1580,0.0
1617,422342733.54515448
2,1, 7,21, 0,17, 0.00,60.00,SummerDesignDay
706,24.0
746,24.00000000000001
786,23.99999999999997
826,24.0
866,24.00000000000001
906,24.0
946,24.000000000000019
986,24.00000000000001
1026,24.000000000000019
1066,24.000000000000015
1106,24.000000000000015
1146,23.999999999999998
1186,24.00000000000003
1226,24.00000000000001
1266,24.000000000000005
1306,24.000000000000005
1346,23.99999999999999
1386,23.999999999999987
1426,24.0
1466,23.999999999999987
2,1, 7,21, 0,18, 0.00,10.00,SummerDesignDay
8,17.159453019160176
10,157243691.28273405
1580,0.0
1617,408027107.2445522
2,1, 7,21, 0,18,10.00,20.00,SummerDesignDay
8,17.090391773337136
10,157243691.28273405
1580,0.0
1617,400494253.8854046
2,1, 7,21, 0,18,20.00,30.00,SummerDesignDay
8,17.021151077964786
10,157243691.28273405
1580,0.0
1617,393051567.44018086
2,1, 7,21, 0,18,30.00,40.00,SummerDesignDay
8,16.951729380464653
10,157243691.28273405
1580,0.0
1617,385653035.93004927
2,1, 7,21, 0,18,40.00,50.00,SummerDesignDay
8,16.882126503829249
10,157243691.28273405
1580,0.0
1617,378348197.4495622
2,1, 7,21, 0,18,50.00,60.00,SummerDesignDay
8,16.812341807494034
10,157243691.28273405
1580,0.0
1617,371073123.48152557
2,1, 7,21, 0,18, 0.00,60.00,SummerDesignDay
706,24.000000000000033
746,24.000000000000033
786,24.00000000000006
826,24.000000000000019
866,24.000000000000019
906,24.000000000000015
946,24.000000000000015
986,24.000000000000005
1026,24.000000000000026
1066,24.0
1106,24.000000000000005
1146,24.00000000000001
1186,24.0
1226,24.000000000000005
1266,24.000000000000005
1306,24.000000000000019
1346,24.000000000000069
1386,24.000000000000015
1426,24.000000000000026
1466,24.000000000000019
2,1, 7,21, 0,19, 0.00,10.00,SummerDesignDay
8,16.707321072823203
10,132332648.61058364
1580,0.0
1617,344402886.9228404
2,1, 7,21, 0,19,10.00,20.00,SummerDesignDay
8,16.601881826644556
10,132332648.61058364
1580,0.0
1617,334829769.50335207
2,1, 7,21, 0,19,20.00,30.00,SummerDesignDay
8,16.496030555252849
10,132332648.61058364
1580,0.0
1617,325622075.44061568
2,1, 7,21, 0,19,30.00,40.00,SummerDesignDay
8,16.389760181474104
10,132332648.61058364
1580,0.0
1617,316211031.8024436
2,1, 7,21, 0,19,40.00,50.00,SummerDesignDay
8,16.283067654262039
10,132332648.61058364
1580,0.0
1617,306997079.067677
2,1, 7,21, 0,19,50.00,60.00,SummerDesignDay
8,16.17595057957811
10,132332648.61058364
1580,0.0
1617,297935192.05821999
2,1, 7,21, 0,19, 0.00,60.00,SummerDesignDay
706,24.00000000000001
746,23.99999999999999
786,24.00000000000001
826,24.0
866,24.000000000000019
906,23.99999999999999
946,24.000000000000015
986,24.000000000000019
1026,23.999999999999984
1066,24.000000000000026
1106,24.000000000000005
1146,24.0
1186,24.000000000000019
1226,24.00000000000001
1266,24.0
1306,24.000000000000005
1346,24.000000000000005
1386,24.00000000000003
1426,24.0
1466,23.99999999999999
2,1, 7,21, 0,20, 0.00,10.00,SummerDesignDay
8,16.097123145563505
10,137771978.33434726
1580,0.0
1617,260707404.5603994
2,1, 7,21, 0,20,10.00,20.00,SummerDesignDay
8,16.018070242471564
10,137771978.33434726
1580,0.0
1617,254273117.76374067
2,1, 7,21, 0,20,20.00,30.00,SummerDesignDay
8,15.938779752340516
10,137771978.33434726
1580,0.0
1617,247401667.22327525
2,1, 7,21, 0,20,30.00,40.00,SummerDesignDay
8,15.85926152575189
10,137771978.33434726
1580,0.0
1617,240420233.70347066
2,1, 7,21, 0,20,40.00,50.00,SummerDesignDay
8,15.779503718563929
10,137771978.33434726
1580,0.0
1617,233205152.94027186
2,1, 7,21, 0,20,50.00,60.00,SummerDesignDay
8,15.699515709672767
10,137771978.33434726
1580,0.0
1617,225705268.59869097
2,1, 7,21, 0,20, 0.00,60.00,SummerDesignDay
706,24.000000000000005
746,24.000000000000005
786,24.00000000000001
826,25.097456292477476
866,24.000000000000026
906,24.000000000000015
946,23.99999999999999
986,24.00000000000001
1026,24.000000000000019
1066,24.00000000000001
1106,24.00000000000001
1146,24.000000000000005
1186,25.55303633646572
1226,24.000000000000005
1266,24.000000000000015
1306,24.000000000000005
1346,24.000000000000019
1386,24.000000000000033
1426,24.000000000000019
1466,24.0
2,1, 7,21, 0,21, 0.00,10.00,SummerDesignDay
8,15.63389147320404
10,139515713.8212323
1580,0.0
1617,219414390.5244358
2,1, 7,21, 0,21,10.00,20.00,SummerDesignDay
8,15.56810827419793
10,139515713.8212323
1580,0.0
1617,211842075.17642463
2,1, 7,21, 0,21,20.00,30.00,SummerDesignDay
8,15.502170882753524
10,139515713.8212323
1580,0.0
1617,204093668.30311487
2,1, 7,21, 0,21,30.00,40.00,SummerDesignDay
8,15.436068032613852
10,139515713.8212323
1580,0.0
1617,196358935.43772889
2,1, 7,21, 0,21,40.00,50.00,SummerDesignDay
8,15.369804371206009
10,139515713.8212323
1580,0.0
1617,189237000.79305
2,1, 7,21, 0,21,50.00,60.00,SummerDesignDay
8,15.303384603594449
10,139515713.8212323
1580,0.0
1617,181699636.48656587
2,1, 7,21, 0,21, 0.00,60.00,SummerDesignDay
706,24.000000000000019
746,24.000000000000005
786,24.0
826,25.707059286955773
866,24.000000000000019
906,24.000000000000015
946,24.00000000000001
986,24.000000000000005
1026,23.999999999999998