Program Version,EnergyPlus, Version 8.9.0-eba93e8e1b, YMD=2019.03.28 13:54
1,5,Environment Title[],Latitude[deg],Longitude[deg],Time Zone[],Elevation[m]
2,8,Day of Simulation[],Month[],Day of Month[],DST Indicator[1=yes 0=no],Hour[],StartMinute[],EndMinute[],DayType
3,5,Cumulative Day of Simulation[],Month[],Day of Month[],DST Indicator[1=yes 0=no],DayType  ! When Daily Report Variables Requested
4,2,Cumulative Days of Simulation[],Month[]  ! When Monthly Report Variables Requested
5,1,Cumulative Days of Simulation[] ! When Run Period Report Variables Requested
6,1,Calendar Year of Simulation[] ! When Annual Report Variables Requested
7,9,Environment,Site Outdoor Air Drybulb Temperature [C] !Monthly [Value,Min,Day,Hour,Minute,Max,Day,Hour,Minute]
8,1,Environment,Site Outdoor Air Wetbulb Temperature [C] !TimeStep
943,1,SP-CONVENTION CENTRE EXHIBIT SPACE-SPACE FUNCTION SYS-3 FLR-2 SCH-C HPLCMT-NORTH ZN,Zone Air Temperature [C] !Hourly
944,7,SP-CONVENTION CENTRE EXHIBIT SPACE-SPACE FUNCTION SYS-3 FLR-2 SCH-C HPLCMT-NORTH ZN,Zone Air Relative Humidity [%] !Daily [Value,Min,Hour,Minute,Max,Hour,Minute]
983,1,SP-DORMITORY LIVING QUARTERS-SPACE FUNCTION SYS-3 FLR-2 SCH-G HPLCMT-EAST ZN,Zone Air Temperature [C] !Hourly
984,7,SP-DORMITORY LIVING QUARTERS-SPACE FUNCTION SYS-3 FLR-2 SCH-G HPLCMT-EAST ZN,Zone Air Relative Humidity [%] !Daily [Value,Min,Hour,Minute,Max,Hour,Minute]
1023,1,SP-DWELLING UNITS GENERAL-SPACE FUNCTION SYS-1 FLR-2 SCH-G HPLCMT-WEST ZN,Zone Air Temperature [C] !Hourly
1024,7,SP-DWELLING UNITS GENERAL-SPACE FUNCTION SYS-1 FLR-2 SCH-G HPLCMT-WEST ZN,Zone Air Relative Humidity [%] !Daily [Value,Min,Hour,Minute,Max,Hour,Minute]
1063,1,SP-DWELLING UNITS LONG-TERM-SPACE FUNCTION SYS-1 FLR-2 SCH-J HPLCMT-SOUTH ZN,Zone Air Temperature [C] !Hourly
1064,7,SP-DWELLING UNITS LONG-TERM-SPACE FUNCTION SYS-1 FLR-2 SCH-J HPLCMT-SOUTH ZN,Zone Air Relative Humidity [%] !Daily [Value,Min,Hour,Minute,Max,Hour,Minute]
1103,1,SP-STORAGE ROOM <= 5 M2 <= 100 M2-SCH-I-SPACE FUNCTION SYS-4 FLR-4 SCH-I HPLCMT-SOUTH ZN,Zone Air Temperature [C] !Hourly
1104,7,SP-STORAGE ROOM <= 5 M2 <= 100 M2-SCH-I-SPACE FUNCTION SYS-4 FLR-4 SCH-I HPLCMT-SOUTH ZN,Zone Air Relative Humidity [%] !Daily [Value,Min,Hour,Minute,Max,Hour,Minute]
1143,1,SP-STORAGE ROOM <= 5 M2 <= 100 M2-SCH-J-SPACE FUNCTION SYS-4 FLR-4 SCH-J HPLCMT-EAST ZN,Zone Air Temperature [C] !Hourly
1144,7,SP-STORAGE ROOM <= 5 M2 <= 100 M2-SCH-J-SPACE FUNCTION SYS-4 FLR-4 SCH-J HPLCMT-EAST ZN,Zone Air Relative Humidity [%] !Daily [Value,Min,Hour,Minute,Max,Hour,Minute]
1183,1,SP-STORAGE ROOM <= 5 M2 <= 100 M2-SCH-K-SPACE FUNCTION SYS-4 FLR-4 SCH-K HPLCMT-NORTH ZN,Zone Air Temperature [C] !Hourly
1184,7,SP-STORAGE ROOM <= 5 M2 <= 100 M2-SCH-K-SPACE FUNCTION SYS-4 FLR-4 SCH-K HPLCMT-NORTH ZN,Zone Air Relative Humidity [%] !Daily [Value,Min,Hour,Minute,Max,Hour,Minute]
1223,1,SP-STORAGE ROOM > 100 M2-SCH-A-SPACE FUNCTION SYS-4 FLR-3 SCH-A HPLCMT-CORE ZN,Zone Air Temperature [C] !Hourly
1224,7,SP-STORAGE ROOM > 100 M2-SCH-A-SPACE FUNCTION SYS-4 FLR-3 SCH-A HPLCMT-CORE ZN,Zone Air Relative Humidity [%] !Daily [Value,Min,Hour,Minute,Max,Hour,Minute]
1263,1,SP-STORAGE ROOM > 100 M2-SCH-B-SPACE FUNCTION SYS-4 FLR-3 SCH-B HPLCMT-EAST ZN,Zone Air Temperature [C] !Hourly
1264,7,SP-STORAGE ROOM > 100 M2-SCH-B-SPACE FUNCTION SYS-4 FLR-3 SCH-B HPLCMT-EAST ZN,Zone Air Relative Humidity [%] !Daily [Value,Min,Hour,Minute,Max,Hour,Minute]
1303,1,SP-STORAGE ROOM > 100 M2-SCH-C-SPACE FUNCTION SYS-4 FLR-3 SCH-C HPLCMT-NORTH ZN,Zone Air Temperature [C] !Hourly
1304,7,SP-STORAGE ROOM > 100 M2-SCH-C-SPACE FUNCTION SYS-4 FLR-3 SCH-C HPLCMT-NORTH ZN,Zone Air Relative Humidity [%] !Daily [Value,Min,Hour,Minute,Max,Hour,Minute]
1343,1,SP-STORAGE ROOM > 100 M2-SCH-D-SPACE FUNCTION SYS-4 FLR-1 SCH-D HPLCMT-WEST ZN,Zone Air Temperature [C] !Hourly
1344,7,SP-STORAGE ROOM > 100 M2-SCH-D-SPACE FUNCTION SYS-4 FLR-1 SCH-D HPLCMT-WEST ZN,Zone Air Relative Humidity [%] !Daily [Value,Min,Hour,Minute,Max,Hour,Minute]
1383,1,SP-STORAGE ROOM > 100 M2-SCH-E-SPACE FUNCTION SYS-4 FLR-1 SCH-E HPLCMT-EAST ZN,Zone Air Temperature [C] !Hourly
1384,7,SP-STORAGE ROOM > 100 M2-SCH-E-SPACE FUNCTION SYS-4 FLR-1 SCH-E HPLCMT-EAST ZN,Zone Air Relative Humidity [%] !Daily [Value,Min,Hour,Minute,Max,Hour,Minute]
1423,1,SP-STORAGE ROOM > 100 M2-SCH-F-SPACE FUNCTION SYS-4 FLR-4 SCH-F HPLCMT-WEST ZN,Zone Air Temperature [C] !Hourly
1424,7,SP-STORAGE ROOM > 100 M2-SCH-F-SPACE FUNCTION SYS-4 FLR-4 SCH-F HPLCMT-WEST ZN,Zone Air Relative Humidity [%] !Daily [Value,Min,Hour,Minute,Max,Hour,Minute]
1463,1,SP-STORAGE ROOM > 100 M2-SCH-G-SPACE FUNCTION SYS-4 FLR-1 SCH-G HPLCMT-SOUTH ZN,Zone Air Temperature [C] !Hourly
1464,7,SP-STORAGE ROOM > 100 M2-SCH-G-SPACE FUNCTION SYS-4 FLR-1 SCH-G HPLCMT-SOUTH ZN,Zone Air Relative Humidity [%] !Daily [Value,Min,Hour,Minute,Max,Hour,Minute]
1503,1,SP-STORAGE ROOM > 100 M2-SCH-H-SPACE FUNCTION SYS-4 FLR-3 SCH-H HPLCMT-SOUTH ZN,Zone Air Temperature [C] !Hourly
1504,7,SP-STORAGE ROOM > 100 M2-SCH-H-SPACE FUNCTION SYS-4 FLR-3 SCH-H HPLCMT-SOUTH ZN,Zone Air Relative Humidity [%] !Daily [Value,Min,Hour,Minute,Max,Hour,Minute]
1543,1,SP-STORAGE ROOM > 100 M2-SCH-I-SPACE FUNCTION SYS-4 FLR-1 SCH-I HPLCMT-NORTH ZN,Zone Air Temperature [C] !Hourly
1544,7,SP-STORAGE ROOM > 100 M2-SCH-I-SPACE FUNCTION SYS-4 FLR-1 SCH-I HPLCMT-NORTH ZN,Zone Air Relative Humidity [%] !Daily [Value,Min,Hour,Minute,Max,Hour,Minute]
1583,1,SP-STORAGE ROOM > 100 M2-SCH-J-SPACE FUNCTION SYS-4 FLR-1 SCH-J HPLCMT-CORE ZN,Zone Air Temperature [C] !Hourly
1584,7,SP-STORAGE ROOM > 100 M2-SCH-J-SPACE FUNCTION SYS-4 FLR-1 SCH-J HPLCMT-CORE ZN,Zone Air Relative Humidity [%] !Daily [Value,Min,Hour,Minute,Max,Hour,Minute]
1623,1,SP-STORAGE ROOM > 100 M2-SCH-K-SPACE FUNCTION SYS-4 FLR-4 SCH-K HPLCMT-CORE ZN,Zone Air Temperature [C] !Hourly
1624,7,SP-STORAGE ROOM > 100 M2-SCH-K-SPACE FUNCTION SYS-4 FLR-4 SCH-K HPLCMT-CORE ZN,Zone Air Relative Humidity [%] !Daily [Value,Min,Hour,Minute,Max,Hour,Minute]
1663,1,SP-VEHICLE MAINTENANCE AREA-SPACE FUNCTION SYS-4 FLR-3 SCH-E HPLCMT-WEST ZN,Zone Air Temperature [C] !Hourly
1664,7,SP-VEHICLE MAINTENANCE AREA-SPACE FUNCTION SYS-4 FLR-3 SCH-E HPLCMT-WEST ZN,Zone Air Relative Humidity [%] !Daily [Value,Min,Hour,Minute,Max,Hour,Minute]
1703,1,SP-WORKSHOP-SPACE FUNCTION SYS-3 FLR-2 SCH-A HPLCMT-CORE ZN,Zone Air Temperature [C] !Hourly
1704,7,SP-WORKSHOP-SPACE FUNCTION SYS-3 FLR-2 SCH-A HPLCMT-CORE ZN,Zone Air Relative Humidity [%] !Daily [Value,Min,Hour,Minute,Max,Hour,Minute]
10,1,Electricity:Facility [J] !TimeStep
709,1,Gas:Facility [J] !TimeStep
End of Data Dictionary
1,FORT MCMURRAY AP ANN CLG .4% CONDNS DB=>MWB,  56.65,-111.22,  -7.00, 369.10
2,1, 7,21, 0, 1, 0.00,10.00,SummerDesignDay
8,14.218136923962174
10,89608476.77627716
709,175124.6204245084
2,1, 7,21, 0, 1,10.00,20.00,SummerDesignDay
8,14.171982153293495
10,89200902.95349112
709,26776147.249880688
2,1, 7,21, 0, 1,20.00,30.00,SummerDesignDay
8,14.125744780286427
10,88647733.01519193
709,26984572.86106036
2,1, 7,21, 0, 1,30.00,40.00,SummerDesignDay
8,14.079436086331978
10,87874909.78147719
709,27208667.62549075
2,1, 7,21, 0, 1,40.00,50.00,SummerDesignDay
8,14.033050387896898
10,87390833.60592895
709,27431555.015796599
2,1, 7,21, 0, 1,50.00,60.00,SummerDesignDay
8,13.986581233564835
10,86756619.44982079
709,27652154.25956086
2,1, 7,21, 0, 1, 0.00,60.00,SummerDesignDay
943,24.044099073267689
983,23.999181181498967
1023,23.890200201889689
1063,23.847093001357626
1103,24.444373519902514
1143,24.001356686688806
1183,25.684277992520348
1223,25.462192234159664
1263,23.999658431089544
1303,25.485104254648463
1343,24.065760712494244
1383,23.983373769955205
1423,24.002154599255865
1463,23.999805153965295
1503,23.999522557413824
1543,24.343256621873228
1583,23.999852030568776
1623,25.555560362277189
1663,20.863931153566438
1703,22.999025713404895
2,1, 7,21, 0, 2, 0.00,10.00,SummerDesignDay
8,13.95555882260429
10,65552539.51587717
709,1303093.8074132945
2,1, 7,21, 0, 2,10.00,20.00,SummerDesignDay
8,13.924507755336454
10,65304878.36677035
709,27107996.431974356
2,1, 7,21, 0, 2,20.00,30.00,SummerDesignDay
8,13.893416042989206
10,65990697.05533218
709,27215103.061049418
2,1, 7,21, 0, 2,30.00,40.00,SummerDesignDay
8,13.862289589689029
10,64858464.825437787
709,1695086.5990936019
2,1, 7,21, 0, 2,40.00,50.00,SummerDesignDay
8,13.831134407608739
10,65067111.51012139
709,27376947.021803935
2,1, 7,21, 0, 2,50.00,60.00,SummerDesignDay
8,13.799938415548118
10,64779214.866060879
709,27651827.57225896
2,1, 7,21, 0, 2, 0.00,60.00,SummerDesignDay
943,23.836561684915315
983,23.999527998646106
1023,23.90596810146728
1063,23.869056218148488
1103,24.37069080126537
1143,23.967101035861533
1183,25.41963662697826
1223,25.307302136589184
1263,24.9244434586879
1303,25.31898832041166
1343,23.940427866911937
1383,23.853569490597278
1423,23.908537251494776
1463,23.947717896273248
1503,23.99962737701404
1543,24.13480370467001
1583,23.998968883414024
1623,25.307069356393908
1663,20.36623105581346
1703,22.70889410012771
2,1, 7,21, 0, 3, 0.00,10.00,SummerDesignDay
8,13.776521671948676
10,61558640.19569768
709,2057694.089786598
2,1, 7,21, 0, 3,10.00,20.00,SummerDesignDay
8,13.753085235778466
10,61412252.02220228
709,27459017.2531464
2,1, 7,21, 0, 3,20.00,30.00,SummerDesignDay
8,13.729636002354969
10,61254071.69873601
709,2253688.0183643174
2,1, 7,21, 0, 3,30.00,40.00,SummerDesignDay
8,13.706147375533054
10,61106254.21072675
709,27604935.829072428
2,1, 7,21, 0, 3,40.00,50.00,SummerDesignDay
8,13.682651961920304
10,60954892.913576748
709,2449678.8725275907
2,1, 7,21, 0, 3,50.00,60.00,SummerDesignDay
8,13.659136670643687
10,60804099.205642748
709,27740264.250164056
2,1, 7,21, 0, 3, 0.00,60.00,SummerDesignDay
943,23.660217710564156
983,23.99951528374369
1023,23.88931693357412
1063,23.84634363387319
1103,24.01424079379407
1143,23.798810985272227
1183,25.188565517558776
1223,25.16427733462802
1263,25.030513926329474
1303,25.165411216023008
1343,23.819470562839695
1383,23.73724251210183
1423,23.623278096193816
1463,23.836347367778534
1503,23.999584264489064
1543,23.886360846525169
1583,23.94974135838613
1623,25.087232751053138
1663,19.983610056496486
1703,22.479659630266299
2,1, 7,21, 0, 4, 0.00,10.00,SummerDesignDay
8,13.63560137410855
10,60123617.90769783
709,2645669.4858161278
2,1, 7,21, 0, 4,10.00,20.00,SummerDesignDay
8,13.612040802606578
10,59969372.29411905
709,27822676.300137834
2,1, 7,21, 0, 4,20.00,30.00,SummerDesignDay
8,13.58846620506876
10,59831036.96759364
709,28147929.93961781
2,1, 7,21, 0, 4,30.00,40.00,SummerDesignDay
8,13.56487178447336
10,59676109.78913844
709,2939654.822813557
2,1, 7,21, 0, 4,40.00,50.00,SummerDesignDay
8,13.541257354069103
10,59537477.359987188
709,28305148.101509438
2,1, 7,21, 0, 4,50.00,60.00,SummerDesignDay
8,13.517617463812285
10,59385838.68602556
709,3135644.6847405985
2,1, 7,21, 0, 4, 0.00,60.00,SummerDesignDay
943,23.503675685645108
983,23.999562423904057
1023,23.888829815587245
1063,23.84597659268188
1103,23.735938337070225
1143,23.599446967517055
1183,24.98902438393611
1223,25.030421972048896
1263,24.798378597911456
1303,25.02179158795335
1343,23.7122846548658
1383,23.637619677416468
1423,23.261086592185934
1463,23.739437099060809
1503,23.999612066935517
1543,23.765721581369303
1583,23.850114548745528
1623,24.897051698449748
1663,19.647187004335469
1703,22.282635708766894
2,1, 7,21, 0, 5, 0.00,10.00,SummerDesignDay
8,13.50185415824011
10,59257892.23811807
709,28430600.302927
2,1, 7,21, 0, 5,10.00,20.00,SummerDesignDay
8,13.486076034032447
10,59295112.26354373
709,3269589.4957245786
2,1, 7,21, 0, 5,20.00,30.00,SummerDesignDay
8,13.470289340350983
10,59332923.644048977
709,28510632.500839749
2,1, 7,21, 0, 5,30.00,40.00,SummerDesignDay
8,13.454493322631063
10,59401199.44980264
709,3400249.1739287537
2,1, 7,21, 0, 5,40.00,50.00,SummerDesignDay
8,13.438688835118548
10,59488856.90671981
709,28585107.10796481
2,1, 7,21, 0, 5,50.00,60.00,SummerDesignDay
8,13.422888173889437
10,59753106.047607589
709,17523585.922227518
2,1, 7,21, 0, 5, 0.00,60.00,SummerDesignDay
943,23.4191306774074
983,23.999499755569059
1023,23.888325028033326
1063,23.845641046422157
1103,23.54504703909568
1143,23.640262106806465
1183,24.822946285608926
1223,24.89889759912643
1263,24.744674347103659
1303,24.943705530672636
1343,23.610657793352016
1383,23.545707463314515
1423,22.966868498994967
1463,23.64955799199252
1503,23.999634207648897
1543,23.660226628511727
1583,23.74832528256893
1623,24.74129766746371
1663,19.356043654994378
1703,22.105153979041704
2,1, 7,21, 0, 6, 0.00,10.00,SummerDesignDay
8,13.438688835118548
10,66278739.08852119
709,14986195.662161323
2,1, 7,21, 0, 6,10.00,20.00,SummerDesignDay
8,13.454493322631063
10,67069470.539938699
709,29219815.979762675
2,1, 7,21, 0, 6,20.00,30.00,SummerDesignDay
8,13.470289340350983
10,67609266.18876557
709,29263771.54131826
2,1, 7,21, 0, 6,30.00,40.00,SummerDesignDay
8,13.486076034032447
10,68189905.35353911
709,3282671.190725282
2,1, 7,21, 0, 6,40.00,50.00,SummerDesignDay
8,13.50185415824011
10,68730917.2138247
709,28998127.096919873
2,1, 7,21, 0, 6,50.00,60.00,SummerDesignDay
8,13.517617463812285
10,69244378.19457737
709,29021965.71711034
2,1, 7,21, 0, 6, 0.00,60.00,SummerDesignDay
943,23.45195875969607
983,23.99916118877147
1023,23.887875999838884
1063,23.845384424767415
1103,23.62646081783348
1143,23.9976151809835
1183,24.857792351461144
1223,24.800792869252747
1263,25.142473778843497
1303,24.970348657345853
1343,23.53810075484788
1383,23.49515343206332
1423,22.96854532574238
1463,23.59039631794308
1503,23.99964258888998
1543,23.59046695943442
1583,23.79445638857038
1623,24.789873496606576
1663,19.277709946944005
1703,22.031978420523754
2,1, 7,21, 0, 7, 0.00,10.00,SummerDesignDay
8,13.572736920571789
10,83491744.69652492
709,32223274.76999702
2,1, 7,21, 0, 7,10.00,20.00,SummerDesignDay
8,13.627748229152554
10,82675631.79856757
709,31646989.164440954
2,1, 7,21, 0, 7,20.00,30.00,SummerDesignDay
8,13.682651961920304
10,82121146.43791358
709,58391111.124275948
2,1, 7,21, 0, 7,30.00,40.00,SummerDesignDay
8,13.737448093244995
10,84819693.50999679
709,33174393.07303848
2,1, 7,21, 0, 7,40.00,50.00,SummerDesignDay
8,13.792137011831216
10,84629266.70508509
709,30947919.256105685
2,1, 7,21, 0, 7,50.00,60.00,SummerDesignDay
8,13.846719282840333
10,85466135.94912914
709,38508642.95248141
2,1, 7,21, 0, 7, 0.00,60.00,SummerDesignDay
943,23.46329950304401
983,23.99868804554433
1023,23.89911753762081
1063,23.86113516694131
1103,24.020531022137165
1143,23.999623232961075
1183,25.174668143014647
1223,24.006765408738404
1263,25.69906201526611
1303,24.9210245081872
1343,23.535289001079947
1383,23.539513257202036
1423,23.33739148467652
1463,23.728037164488005
1503,23.99968143184982
1543,23.59620643051805
1583,23.96341216377638
1623,25.116342717318444
1663,19.577836208335524
1703,22.158745231117164
2,1, 7,21, 0, 8, 0.00,10.00,SummerDesignDay
8,13.978831900527043
10,118623194.15128003
709,88454783.29222429
2,1, 7,21, 0, 8,10.00,20.00,SummerDesignDay
8,14.110321014287419
10,119851228.46877226
709,91273071.7366648
2,1, 7,21, 0, 8,20.00,30.00,SummerDesignDay
8,14.241191509616986
10,122427559.36763881
709,90388885.48226388
2,1, 7,21, 0, 8,30.00,40.00,SummerDesignDay
8,14.371447531304272
10,124625368.03769598
709,90229637.99223939
2,1, 7,21, 0, 8,40.00,50.00,SummerDesignDay
8,14.501093766564925
10,125650116.18160028
709,90225549.18681357
2,1, 7,21, 0, 8,50.00,60.00,SummerDesignDay
8,14.630134792273804
10,125730363.56830004
709,88344226.16042745
2,1, 7,21, 0, 8, 0.00,60.00,SummerDesignDay
943,23.69025599858649
983,23.9975466256392
1023,23.89863676024302
1063,23.861061547324849
1103,24.85494447617954
1143,23.999339927883985
1183,25.75140682556471
1223,23.999916680408803
1263,26.30331648996824
1303,24.02027892860684
1343,23.63852819346675
1383,23.713821627937365
1423,23.940898886270305
1463,23.974446713817448
1503,23.999660292303095
1543,23.703216673166155
1583,23.999631692770707
1623,25.699125738919368
1663,20.55913621430932
1703,22.946743451806574
2,1, 7,21, 0, 9, 0.00,10.00,SummerDesignDay
8,14.773641492809972
10,186005949.76667357
709,103083928.6638948
2,1, 7,21, 0, 9,10.00,20.00,SummerDesignDay
8,14.91640948124148
10,189255224.19252063
709,87646704.92028329
2,1, 7,21, 0, 9,20.00,30.00,SummerDesignDay
8,15.05843890714102
10,191708233.9225888
709,86694180.62615904
2,1, 7,21, 0, 9,30.00,40.00,SummerDesignDay
8,15.199735893563798
10,196173225.43182663
709,86293782.15139395
2,1, 7,21, 0, 9,40.00,50.00,SummerDesignDay
8,15.340306256439395
10,196455600.1428024
709,86315755.41127123
2,1, 7,21, 0, 9,50.00,60.00,SummerDesignDay
8,15.48015101768072
10,199164941.02452094
709,86706572.35313483
2,1, 7,21, 0, 9, 0.00,60.00,SummerDesignDay
943,23.99749538604993
983,23.998093893814045
1023,23.9404692530034
1063,23.917502334708585
1103,26.310923347750238
1143,23.999499771244016
1183,26.4467180177881
1223,23.999894794320757
1263,24.215855365790799
1303,23.999918206472186
1343,23.947833728303079
1383,23.98860918966106
1423,23.9998593847576
1463,23.99980355638827
1503,23.99977130570659
1543,23.917723745728478
1583,23.999761266069524
1623,26.408892318242196
1663,22.35621962523695
1703,23.965293703073369
2,1, 7,21, 0,10, 0.00,10.00,SummerDesignDay
8,15.60467292907716
10,220461439.9026744
709,81799867.40816868
2,1, 7,21, 0,10,10.00,20.00,SummerDesignDay
8,15.72862731650033
10,222190415.51956416
709,81325261.89772964
2,1, 7,21, 0,10,20.00,30.00,SummerDesignDay
8,15.852017409284228
10,224963904.64626096
709,82728393.6969545
2,1, 7,21, 0,10,30.00,40.00,SummerDesignDay
8,15.974848118364367
10,228235026.42162127
709,84993745.37111491
2,1, 7,21, 0,10,40.00,50.00,SummerDesignDay
8,16.097123145563505
10,231326167.72671134
709,84995333.88387025
2,1, 7,21, 0,10,50.00,60.00,SummerDesignDay
8,16.218846351168599
10,234378784.7150463
709,84996711.84548912
2,1, 7,21, 0,10, 0.00,60.00,SummerDesignDay
943,23.9997291820425
983,23.998410809093348
1023,23.936741854126983
1063,23.912722027512947
1103,28.316940324092405
1143,23.999503915281414
1183,27.31342916660869
1223,23.999846747002626
1263,23.999744285485496
1303,23.999895377929446
1343,23.999805485586735
1383,23.999855401229995
1423,23.999786860616426
1463,23.99991011679148
1503,23.999695415995875
1543,24.266393715842626
1583,23.99973999382789
1623,27.31762351826003
1663,23.843304662636617
1703,23.99950940940151
2,1, 7,21, 0,11, 0.00,10.00,SummerDesignDay
8,16.325793027093189
10,244360898.01636765
709,86879920.66834232
2,1, 7,21, 0,11,10.00,20.00,SummerDesignDay
8,16.432322158488288
10,247227073.2699822
709,87085722.28716144
2,1, 7,21, 0,11,20.00,30.00,SummerDesignDay
8,16.538424180249178
10,250017513.68968529
709,87084959.07979489
2,1, 7,21, 0,11,30.00,40.00,SummerDesignDay
8,16.644108396469087
10,252777209.69604386
709,87084101.67152575
2,1, 7,21, 0,11,40.00,50.00,SummerDesignDay
8,16.749376736593655
10,255521020.45254953
709,87083174.87656804
2,1, 7,21, 0,11,50.00,60.00,SummerDesignDay
8,16.854232613237156
10,258262496.22815956
709,87082179.95816307
2,1, 7,21, 0,11, 0.00,60.00,SummerDesignDay
943,23.99959280334807
983,23.99883919688315
1023,23.936856648688218
1063,23.913148545205656
1103,30.512489946994678
1143,23.999603744115217
1183,28.18244559514267
1223,23.999804278860734
1263,23.999782615833209
1303,23.999896014222757
1343,23.999771045375984
1383,23.999797719216987
1423,23.99977480391304
1463,23.99991505452029
1503,23.999615436365859
1543,24.677445160770007
1583,23.99974369635534
1623,28.250472699932887
1663,23.999886342157173
1703,23.99954010736484
2,1, 7,21, 0,12, 0.00,10.00,SummerDesignDay
8,16.92390823520069
10,258624286.3186052
709,68499400.10137388
2,1, 7,21, 0,12,10.00,20.00,SummerDesignDay
8,16.99340178950456
10,259875338.45023329
709,66073639.33921675
2,1, 7,21, 0,12,20.00,30.00,SummerDesignDay
8,17.06272006743463
10,262750461.82308639
709,65994324.49756977
2,1, 7,21, 0,12,30.00,40.00,SummerDesignDay
8,17.131853229172639
10,263859508.47584424
709,65909516.41075956
2,1, 7,21, 0,12,40.00,50.00,SummerDesignDay
8,17.200807172194087
10,266405411.48108087
709,65818897.7985704
2,1, 7,21, 0,12,50.00,60.00,SummerDesignDay
8,17.269582116758607
10,268290782.33434246
709,72466120.02641195
2,1, 7,21, 0,12, 0.00,60.00,SummerDesignDay
943,23.99922194144594
983,23.998844760515259
1023,23.904098254676314
1063,23.871234900495066
1103,32.4502639598687
1143,23.99950091171901
1183,28.978045203339904
1223,23.999626231138085
1263,23.99972057796204
1303,23.999827270723768
1343,23.999577890811524
1383,23.99967842022961
1423,23.999700995744829
1463,23.999883983888905
1503,23.999318886055197
1543,25.08399176080472
1583,23.999643395622348
1623,29.10295185368058
1663,23.99996150203134
1703,23.999248254179006
2,1, 7,21, 0,13, 0.00,10.00,SummerDesignDay
8,17.32447360221357
10,266334293.35928733
709,76760669.88507827
2,1, 7,21, 0,13,10.00,20.00,SummerDesignDay
8,17.379251291230806
10,268174168.1307474
709,77169505.5257526
2,1, 7,21, 0,13,20.00,30.00,SummerDesignDay
8,17.433921312061729
10,269944472.2853609
709,77169846.00735662
2,1, 7,21, 0,13,30.00,40.00,SummerDesignDay
8,17.488473222557489
10,271778489.7775643
709,77169301.05296229
2,1, 7,21, 0,13,40.00,50.00,SummerDesignDay
8,17.542913447755134
10,273617104.26109018
709,77168725.77973493
2,1, 7,21, 0,13,50.00,60.00,SummerDesignDay
8,17.59724609886134
10,275452553.9378814
709,77168150.37321626
2,1, 7,21, 0,13, 0.00,60.00,SummerDesignDay
943,23.998681520694914
983,23.998960807581186
1023,23.88776653187237
1063,23.84983698901023
1103,33.758978170980387
1143,23.999419344079017
1183,29.579593847131425
1223,23.999522658723408
1263,23.99967200268968
1303,23.999714890276
1343,23.999467203188954
1383,23.999601528768879
1423,23.999690160667244
1463,23.999895205788659
1503,23.99912840830511
1543,25.338198493240396
1583,23.999633315013829
1623,29.74753333829106
1663,23.9997852417585
1703,23.999122862255875
2,1, 7,21, 0,14, 0.00,10.00,SummerDesignDay
8,17.6311450462694
10,276700930.9901722
709,79046359.24170739
2,1, 7,21, 0,14,10.00,20.00,SummerDesignDay
8,17.665000449016245
10,278056267.21351167
709,79264280.3465062
2,1, 7,21, 0,14,20.00,30.00,SummerDesignDay
8,17.698812743128934
10,279342098.24577888
709,79266819.65191956
2,1, 7,21, 0,14,30.00,40.00,SummerDesignDay
8,17.732582050940107
10,280685255.65567979
709,79269094.30552301
2,1, 7,21, 0,14,40.00,50.00,SummerDesignDay
8,17.766307345121004
10,281932712.11019399
709,79271344.49848286
2,1, 7,21, 0,14,50.00,60.00,SummerDesignDay
8,17.79999023167558
10,283434444.1137576
709,79273579.55660784
2,1, 7,21, 0,14, 0.00,60.00,SummerDesignDay
943,23.9982595855633
983,23.999102268901316
1023,23.88841608397649
1063,23.850988553933008
1103,34.629993814530347
1143,23.99941882842977
1183,30.009360382817694
1223,23.999488270098639
1263,23.99962600812326
1303,23.99958505407452
1343,23.99941845523833
1383,23.999496648577808
1423,23.999704631507809
1463,23.99989660774852
1503,23.999096658212609
1543,25.511323107451305
1583,23.999629386042213
1623,30.20457123759495
1663,23.999681731821864
1703,23.99910728487377
2,1, 7,21, 0,15, 0.00,10.00,SummerDesignDay
8,17.79999023167558
10,311187766.7033426
709,86215033.57333048
2,1, 7,21, 0,15,10.00,20.00,SummerDesignDay
8,17.79999023167558
10,311398766.75233206
709,87708153.46383727
2,1, 7,21, 0,15,20.00,30.00,SummerDesignDay
8,17.79999023167558
10,308823341.51269116
709,87950869.81190388
2,1, 7,21, 0,15,30.00,40.00,SummerDesignDay
8,17.79999023167558
10,307385448.44329288
709,88080409.64252492
2,1, 7,21, 0,15,40.00,50.00,SummerDesignDay
8,17.79999023167558
10,304552274.74914029
709,87948938.5894066
2,1, 7,21, 0,15,50.00,60.00,SummerDesignDay
8,17.79999023167558
10,303363413.2505011
709,87947633.05105779
2,1, 7,21, 0,15, 0.00,60.00,SummerDesignDay
943,23.999028653164328
983,23.999532899246618
1023,23.94357778109031
1063,23.929463305298499
1103,25.408295997110913
1143,23.999724487243414
1183,30.223651234036084
1223,23.999703251318626
1263,23.9998006646809
1303,23.999744776721824
1343,23.999673123273085
1383,23.999712489518119
1423,23.999815717581837
1463,23.999944344867349
1503,23.999547248245308
1543,24.20649762443817
1583,23.999796578133727
1623,30.40593175367968
1663,23.999862260773285
1703,23.99946166301395
2,1, 7,21, 0,16, 0.00,10.00,SummerDesignDay
8,17.759562446305357
10,310751909.5288005
709,100299554.89897779
2,1, 7,21, 0,16,10.00,20.00,SummerDesignDay
8,17.71907809634183
10,310073207.3074077
709,99998699.53630853
2,1, 7,21, 0,16,20.00,30.00,SummerDesignDay
8,17.67853788661001
10,308723439.8166984
709,93316559.27623287
2,1, 7,21, 0,16,30.00,40.00,SummerDesignDay
8,17.63791796367351
10,307366727.23200437
709,93347727.07768689
2,1, 7,21, 0,16,40.00,50.00,SummerDesignDay
8,17.59724609886134
10,305950990.73139306
709,93381382.59069173
2,1, 7,21, 0,16,50.00,60.00,SummerDesignDay
8,17.55650676726033
10,304475918.97377118
709,93414512.5725063
2,1, 7,21, 0,16, 0.00,60.00,SummerDesignDay
943,23.99792789950068
983,23.998781566015624
1023,23.891279174745497
1063,23.84910109731197
1103,23.999743256299284
1143,23.999474912722929
1183,30.24434155161563
1223,23.999338193858674
1263,23.99961969957167
1303,23.999416450061017
1343,23.999265594499538
1383,23.99933347449566
1423,23.999618679907696
1463,23.999875120848633
1503,23.999142475028447
1543,23.999978369028044
1583,23.999556601994187
1623,30.29610836699706
1663,23.999611295872499
1703,23.998805830771187
2,1, 7,21, 0,17, 0.00,10.00,SummerDesignDay
8,17.50209486331892
10,301612710.46861359
709,89673268.83160174
2,1, 7,21, 0,17,10.00,20.00,SummerDesignDay
8,17.447570789624618
10,299448666.9289207
709,91229771.02548802
2,1, 7,21, 0,17,20.00,30.00,SummerDesignDay
8,17.392929544208135
10,297454594.5745498
709,96904225.96354121
2,1, 7,21, 0,17,30.00,40.00,SummerDesignDay
8,17.33818013976614
10,295546312.3001064
709,96899340.9664672
2,1, 7,21, 0,17,40.00,50.00,SummerDesignDay
8,17.283317298559309
10,293660648.60224637
709,96891743.90873543
2,1, 7,21, 0,17,50.00,60.00,SummerDesignDay
8,17.22833552437677
10,291731477.4932575
709,96883933.93221812
2,1, 7,21, 0,17, 0.00,60.00,SummerDesignDay
943,23.99770418765507
983,23.998376888477226
1023,23.891878643239506
1063,23.84832658840207
1103,23.99981682214987
1143,23.99954130653934
1183,30.0390097398066
1223,23.99928988039527
1263,23.999667808059117
1303,23.99935715631993
1343,23.999279614236543
1383,23.999241387183618
1423,23.999632911920118
1463,23.999836916271464
1503,23.999176427785718
1543,23.99990931011401
1583,23.9994796983302
1623,30.004843552225095
1663,23.999613572531378
1703,23.998787956426527
2,1, 7,21, 0,18, 0.00,10.00,SummerDesignDay
8,17.159453019160176
10,280286842.3247754
709,98117162.45292221
2,1, 7,21, 0,18,10.00,20.00,SummerDesignDay
8,17.090391773337136
10,278109055.3949065
709,94679740.50159052
2,1, 7,21, 0,18,20.00,30.00,SummerDesignDay
8,17.021151077964786
10,275667747.32858118
709,90318470.329845
2,1, 7,21, 0,18,30.00,40.00,SummerDesignDay
8,16.951729380464653
10,273230499.3045141
709,90347782.2764081
2,1, 7,21, 0,18,40.00,50.00,SummerDesignDay
8,16.882126503829249
10,270781167.59071049
709,90378040.87564825
2,1, 7,21, 0,18,50.00,60.00,SummerDesignDay
8,16.812341807494034
10,268307830.54952006
709,90407794.86767297
2,1, 7,21, 0,18, 0.00,60.00,SummerDesignDay
943,23.997814443989787
983,23.99803795640632
1023,23.892153953233178
1063,23.84790722444946
1103,23.99987920396988
1143,23.9996475164693
1183,29.653173511694026
1223,23.999351796304848
1263,23.99970008607635
1303,23.999386953467807
1343,23.999430111556124
1383,23.999184531039544
1423,23.999668215025399
1463,23.999771768467956
1503,23.999195662003986
1543,23.9998725894127
1583,23.999419420593687
1623,29.577828616720184
1663,23.99965623867278
1703,23.99890318868429
2,1, 7,21, 0,19, 0.00,10.00,SummerDesignDay
8,16.707321072823203
10,249190959.57870219
709,88035274.5223297
2,1, 7,21, 0,19,10.00,20.00,SummerDesignDay
8,16.601881826644556
10,245608059.8960637
709,88622020.0292818
2,1, 7,21, 0,19,20.00,30.00,SummerDesignDay
8,16.496030555252849
10,242159896.6117455
709,95020886.23127449
2,1, 7,21, 0,19,30.00,40.00,SummerDesignDay
8,16.389760181474104
10,238718352.55030269
709,95017267.50666642
2,1, 7,21, 0,19,40.00,50.00,SummerDesignDay
8,16.283067654262039
10,235267120.9317852
709,95010183.17106939
2,1, 7,21, 0,19,50.00,60.00,SummerDesignDay
8,16.17595057957811
10,231797557.26074288
709,95002841.96256553
2,1, 7,21, 0,19, 0.00,60.00,SummerDesignDay
943,23.998208218476063
983,23.99725576408265
1023,23.891640575782593
1063,23.847480046246518
1103,23.999881393578069
1143,23.999733926992563
1183,29.03132269338569
1223,23.999516913724468
1263,23.999685736855118
1303,23.999453398833638
1343,23.99946829757661
1383,23.999565982974219
1423,23.999733254759787
1463,23.99968943633571
1503,23.9992199146007
1543,23.999742556031863
1583,23.999320666289206
1623,28.94100867410299
1663,23.99983819830113
1703,23.99940307927348
2,1, 7,21, 0,20, 0.00,10.00,SummerDesignDay
8,16.097123145563505
10,218987148.38071276
709,75592614.77934978
2,1, 7,21, 0,20,10.00,20.00,SummerDesignDay
8,16.018070242471564
10,216989454.3136994
709,73028823.88455507
2,1, 7,21, 0,20,20.00,30.00,SummerDesignDay
8,15.938779752340516
10,216278802.50184659
709,73015045.87887976
2,1, 7,21, 0,20,30.00,40.00,SummerDesignDay
8,15.85926152575189
10,213473227.6580836
709,72998982.04537224
2,1, 7,21, 0,20,40.00,50.00,SummerDesignDay
8,15.779503718563929
10,212141248.9772928
709,72982355.60387129
2,1, 7,21, 0,20,50.00,60.00,SummerDesignDay
8,15.699515709672767
10,210055774.2884936
709,72965433.65259063
2,1, 7,21, 0,20, 0.00,60.00,SummerDesignDay
943,23.99913724399944
983,23.99750787384939
1023,23.907517551170288
1063,23.869446603957795
1103,23.99986574130419
1143,23.9998296935277
1183,28.240228861226514
1223,23.99972294869889
1263,23.99969717578529
1303,23.999640749534636
1343,23.999425097326009
1383,24.50103278528148
1423,23.99983071104171
1463,23.999283934792947
1503,23.999382181517857
1543,23.999572390832399
1583,23.999343620242685
1623,28.144939829927777
1663,24.698541304033446
1703,23.999838544652915
2,1, 7,21, 0,21, 0.00,10.00,SummerDesignDay
8,15.63389147320404