Program Version,EnergyPlus, Version 8.9.0-eba93e8e1b, YMD=2019.03.28 13:15
1,5,Environment Title[],Latitude[deg],Longitude[deg],Time Zone[],Elevation[m]
2,8,Day of Simulation[],Month[],Day of Month[],DST Indicator[1=yes 0=no],Hour[],StartMinute[],EndMinute[],DayType
3,5,Cumulative Day of Simulation[],Month[],Day of Month[],DST Indicator[1=yes 0=no],DayType  ! When Daily Report Variables Requested
4,2,Cumulative Days of Simulation[],Month[]  ! When Monthly Report Variables Requested
5,1,Cumulative Days of Simulation[] ! When Run Period Report Variables Requested
6,1,Calendar Year of Simulation[] ! When Annual Report Variables Requested
7,9,Environment,Site Outdoor Air Drybulb Temperature [C] !Monthly [Value,Min,Day,Hour,Minute,Max,Day,Hour,Minute]
8,1,Environment,Site Outdoor Air Wetbulb Temperature [C] !TimeStep
901,1,LOBBY - MOTION PICTURE-SPACE FUNCTION ZN,Zone Air Temperature [C] !Hourly
902,7,LOBBY - MOTION PICTURE-SPACE FUNCTION ZN,Zone Air Relative Humidity [%] !Daily [Value,Min,Hour,Minute,Max,Hour,Minute]
941,1,LOBBY - OTHER-SPACE FUNCTION ZN,Zone Air Temperature [C] !Hourly
942,7,LOBBY - OTHER-SPACE FUNCTION ZN,Zone Air Relative Humidity [%] !Daily [Value,Min,Hour,Minute,Max,Hour,Minute]
981,1,LOBBY - PERFORMANCE ARTS-SPACE FUNCTION ZN,Zone Air Temperature [C] !Hourly
982,7,LOBBY - PERFORMANCE ARTS-SPACE FUNCTION ZN,Zone Air Relative Humidity [%] !Daily [Value,Min,Hour,Minute,Max,Hour,Minute]
1021,1,LOUNGE/RECREATION-SPACE FUNCTION ZN,Zone Air Temperature [C] !Hourly
1022,7,LOUNGE/RECREATION-SPACE FUNCTION ZN,Zone Air Relative Humidity [%] !Daily [Value,Min,Hour,Minute,Max,Hour,Minute]
1061,1,MFG - 7.5 <= BAY H <= 15M-SPACE FUNCTION ZN,Zone Air Temperature [C] !Hourly
1062,7,MFG - 7.5 <= BAY H <= 15M-SPACE FUNCTION ZN,Zone Air Relative Humidity [%] !Daily [Value,Min,Hour,Minute,Max,Hour,Minute]
1101,1,MFG - BAY H < 7.5M-SPACE FUNCTION ZN,Zone Air Temperature [C] !Hourly
1102,7,MFG - BAY H < 7.5M-SPACE FUNCTION ZN,Zone Air Relative Humidity [%] !Daily [Value,Min,Hour,Minute,Max,Hour,Minute]
1141,1,MFG - BAY H > 15M-SPACE FUNCTION ZN,Zone Air Temperature [C] !Hourly
1142,7,MFG - BAY H > 15M-SPACE FUNCTION ZN,Zone Air Relative Humidity [%] !Daily [Value,Min,Hour,Minute,Max,Hour,Minute]
1181,1,MFG - DETAILED-SPACE FUNCTION ZN,Zone Air Temperature [C] !Hourly
1182,7,MFG - DETAILED-SPACE FUNCTION ZN,Zone Air Relative Humidity [%] !Daily [Value,Min,Hour,Minute,Max,Hour,Minute]
1221,1,MFG - EQUIPMENT-SPACE FUNCTION ZN,Zone Air Temperature [C] !Hourly
1222,7,MFG - EQUIPMENT-SPACE FUNCTION ZN,Zone Air Relative Humidity [%] !Daily [Value,Min,Hour,Minute,Max,Hour,Minute]
1261,1,MUSEUM - EXHIBITION-SPACE FUNCTION ZN,Zone Air Temperature [C] !Hourly
1262,7,MUSEUM - EXHIBITION-SPACE FUNCTION ZN,Zone Air Relative Humidity [%] !Daily [Value,Min,Hour,Minute,Max,Hour,Minute]
1301,1,MUSEUM - RESTORATION-SPACE FUNCTION ZN,Zone Air Temperature [C] !Hourly
1302,7,MUSEUM - RESTORATION-SPACE FUNCTION ZN,Zone Air Relative Humidity [%] !Daily [Value,Min,Hour,Minute,Max,Hour,Minute]
1341,1,OFFICE - ENCLOSED - OCCSENS-SPACE FUNCTION ZN,Zone Air Temperature [C] !Hourly
1342,7,OFFICE - ENCLOSED - OCCSENS-SPACE FUNCTION ZN,Zone Air Relative Humidity [%] !Daily [Value,Min,Hour,Minute,Max,Hour,Minute]
1381,1,OFFICE - ENCLOSED-SPACE FUNCTION ZN,Zone Air Temperature [C] !Hourly
1382,7,OFFICE - ENCLOSED-SPACE FUNCTION ZN,Zone Air Relative Humidity [%] !Daily [Value,Min,Hour,Minute,Max,Hour,Minute]
1421,1,OFFICE - OPEN PLAN-SPACE FUNCTION ZN,Zone Air Temperature [C] !Hourly
1422,7,OFFICE - OPEN PLAN-SPACE FUNCTION ZN,Zone Air Relative Humidity [%] !Daily [Value,Min,Hour,Minute,Max,Hour,Minute]
1461,1,PARKING GARAGE SPACE-SPACE FUNCTION ZN,Zone Air Temperature [C] !Hourly
1462,7,PARKING GARAGE SPACE-SPACE FUNCTION ZN,Zone Air Relative Humidity [%] !Daily [Value,Min,Hour,Minute,Max,Hour,Minute]
1501,1,PENITENTIARY - AUDIENCE-SPACE FUNCTION ZN,Zone Air Temperature [C] !Hourly
1502,7,PENITENTIARY - AUDIENCE-SPACE FUNCTION ZN,Zone Air Relative Humidity [%] !Daily [Value,Min,Hour,Minute,Max,Hour,Minute]
1541,1,PENITENTIARY - CLASSROOM-SPACE FUNCTION ZN,Zone Air Temperature [C] !Hourly
1542,7,PENITENTIARY - CLASSROOM-SPACE FUNCTION ZN,Zone Air Relative Humidity [%] !Daily [Value,Min,Hour,Minute,Max,Hour,Minute]
1581,1,PENITENTIARY - DINING-SPACE FUNCTION ZN,Zone Air Temperature [C] !Hourly
1582,7,PENITENTIARY - DINING-SPACE FUNCTION ZN,Zone Air Relative Humidity [%] !Daily [Value,Min,Hour,Minute,Max,Hour,Minute]
1621,1,POST OFFICE SORTING-SPACE FUNCTION ZN,Zone Air Temperature [C] !Hourly
1622,7,POST OFFICE SORTING-SPACE FUNCTION ZN,Zone Air Relative Humidity [%] !Daily [Value,Min,Hour,Minute,Max,Hour,Minute]
1661,1,RELIGIOUS - AUDIENCE-SPACE FUNCTION ZN,Zone Air Temperature [C] !Hourly
1662,7,RELIGIOUS - AUDIENCE-SPACE FUNCTION ZN,Zone Air Relative Humidity [%] !Daily [Value,Min,Hour,Minute,Max,Hour,Minute]
10,1,Electricity:Facility [J] !TimeStep
1812,1,DistrictCooling:Facility [J] !TimeStep
1775,1,DistrictHeating:Facility [J] !TimeStep
End of Data Dictionary
1,FORT MCMURRAY AP ANN CLG .4% CONDNS DB=>MWB,  56.65,-111.22,  -7.00, 369.10
2,1, 7,21, 0, 1, 0.00,10.00,SummerDesignDay
8,14.218136923962174
10,65010771.44497912
1775,0.0
1812,346068.0464099104
2,1, 7,21, 0, 1,10.00,20.00,SummerDesignDay
8,14.171982153293495
10,65010771.44497912
1775,0.0
1812,0.0
2,1, 7,21, 0, 1,20.00,30.00,SummerDesignDay
8,14.125744780286427
10,65010771.44497912
1775,0.0
1812,0.0
2,1, 7,21, 0, 1,30.00,40.00,SummerDesignDay
8,14.079436086331978
10,65010771.44497912
1775,0.0
1812,0.0
2,1, 7,21, 0, 1,40.00,50.00,SummerDesignDay
8,14.033050387896898
10,65010771.44497912
1775,0.0
1812,0.0
2,1, 7,21, 0, 1,50.00,60.00,SummerDesignDay
8,13.986581233564835
10,65010771.44497912
1775,0.0
1812,0.0
2,1, 7,21, 0, 1, 0.00,60.00,SummerDesignDay
901,20.41727929327851
941,20.37494852678067
981,20.625181825268958
1021,23.938744526337556
1061,22.855581163969516
1101,24.11974628521936
1141,23.457482663147365
1181,22.71150425117906
1221,23.089315500994038
1261,23.128125246050059
1301,23.574649317089649
1341,24.548339761182136
1381,24.626092304715063
1421,25.463443792557475
1461,22.329702402828305
1501,23.272001895751175
1541,22.117233333023223
1581,22.689223254333738
1621,24.068782094774929
1661,22.83620620195016
2,1, 7,21, 0, 2, 0.00,10.00,SummerDesignDay
8,13.95555882260429
10,45915180.3697032
1775,0.0
1812,0.0
2,1, 7,21, 0, 2,10.00,20.00,SummerDesignDay
8,13.924507755336454
10,45915180.3697032
1775,0.0
1812,0.0
2,1, 7,21, 0, 2,20.00,30.00,SummerDesignDay
8,13.893416042989206
10,45915180.3697032
1775,1588527.237041938
1812,0.0
2,1, 7,21, 0, 2,30.00,40.00,SummerDesignDay
8,13.862289589689029
10,45915180.3697032
1775,1578433.7003165039
1812,0.0
2,1, 7,21, 0, 2,40.00,50.00,SummerDesignDay
8,13.831134407608739
10,45915180.3697032
1775,2199319.9238107178
1812,0.0
2,1, 7,21, 0, 2,50.00,60.00,SummerDesignDay
8,13.799938415548118
10,45915180.3697032
1775,2870139.7801475336
1812,0.0
2,1, 7,21, 0, 2, 0.00,60.00,SummerDesignDay
901,19.856333495045594
941,19.838491561576526
981,20.06715010155818
1021,23.065381457069763
1061,22.35099894358632
1101,23.745286928662549
1141,23.176713475099068
1181,22.42708986906835
1221,22.783986915509357
1261,22.72582790249801
1301,23.33367551883337
1341,24.34295518576167
1381,24.453228911838296
1421,25.233943044414134
1461,21.96537526828796
1501,22.86791916718492
1541,21.73053109488536
1581,22.065169084301919
1621,23.745613343697149
1661,21.85531787914122
2,1, 7,21, 0, 3, 0.00,10.00,SummerDesignDay
8,13.776521671948676
10,36033262.61286768
1775,0.0
1812,0.0
2,1, 7,21, 0, 3,10.00,20.00,SummerDesignDay
8,13.753085235778466
10,36033262.61286768
1775,0.0
1812,0.0
2,1, 7,21, 0, 3,20.00,30.00,SummerDesignDay
8,13.729636002354969
10,36033262.61286768
1775,0.0
1812,0.0
2,1, 7,21, 0, 3,30.00,40.00,SummerDesignDay
8,13.706147375533054
10,36033262.61286768
1775,0.0
1812,0.0
2,1, 7,21, 0, 3,40.00,50.00,SummerDesignDay
8,13.682651961920304
10,36033262.61286768
1775,0.0
1812,0.0
2,1, 7,21, 0, 3,50.00,60.00,SummerDesignDay
8,13.659136670643687
10,36033262.61286768
1775,0.0
1812,0.0
2,1, 7,21, 0, 3, 0.00,60.00,SummerDesignDay
901,19.432773596879426
941,19.429453729249159
981,19.638203958186677
1021,21.93485987259343
1061,21.93485416377499
1101,23.417603784200524
1141,22.9573106340939
1181,22.20617301450078
1221,22.541623975934916
1261,22.373820695505626
1301,23.13239224833403
1341,24.166027873917384
1381,24.290731154161496
1421,25.032395672863488
1461,21.671272995843294
1501,22.535212708352565
1541,21.428453104340574
1581,21.344950043295389
1621,23.465298091019937
1661,21.410543415868348
2,1, 7,21, 0, 4, 0.00,10.00,SummerDesignDay
8,13.63560137410855
10,36033262.61286768
1775,0.0
1812,0.0
2,1, 7,21, 0, 4,10.00,20.00,SummerDesignDay
8,13.612040802606578
10,36033262.61286768
1775,0.0
1812,0.0
2,1, 7,21, 0, 4,20.00,30.00,SummerDesignDay
8,13.58846620506876
10,36033262.61286768
1775,0.0
1812,0.0
2,1, 7,21, 0, 4,30.00,40.00,SummerDesignDay
8,13.56487178447336
10,36033262.61286768
1775,0.0
1812,0.0
2,1, 7,21, 0, 4,40.00,50.00,SummerDesignDay
8,13.541257354069103
10,36033262.61286768
1775,0.0
1812,0.0
2,1, 7,21, 0, 4,50.00,60.00,SummerDesignDay
8,13.517617463812285
10,36033262.61286768
1775,0.0
1812,0.0
2,1, 7,21, 0, 4, 0.00,60.00,SummerDesignDay
901,19.065330278936889
941,19.07317853049209
981,19.263797546948145
1021,21.279580873236353
1061,21.56110684273317
1101,23.099085900271729
1141,22.759882549757923
1181,22.00862774718559
1221,22.321791684802549
1261,22.040247114790647
1301,22.93611409099836
1341,23.996091527946267
1381,24.12681038577151
1421,24.842211932059983
1461,21.389771971036283
1501,22.227892588822795
1541,21.15818193943053
1581,20.944089000456278
1621,23.198232863079558
1661,21.095889593933859
2,1, 7,21, 0, 5, 0.00,10.00,SummerDesignDay
8,13.50185415824011
10,36033262.61286768
1775,0.0
1812,0.0
2,1, 7,21, 0, 5,10.00,20.00,SummerDesignDay
8,13.486076034032447
10,36033262.61286768
1775,0.0
1812,0.0
2,1, 7,21, 0, 5,20.00,30.00,SummerDesignDay
8,13.470289340350983
10,36033262.61286768
1775,0.0
1812,0.0
2,1, 7,21, 0, 5,30.00,40.00,SummerDesignDay
8,13.454493322631063
10,36033262.61286768
1775,0.0
1812,0.0
2,1, 7,21, 0, 5,40.00,50.00,SummerDesignDay
8,13.438688835118548
10,36033262.61286768
1775,0.0
1812,0.0
2,1, 7,21, 0, 5,50.00,60.00,SummerDesignDay
8,13.422888173889437
10,36033262.61286768
1775,0.0
1812,0.0
2,1, 7,21, 0, 5, 0.00,60.00,SummerDesignDay
901,18.7875342667041
941,18.80073450926329
981,19.139161375182515
1021,21.09899663260678
1061,21.288788977985015
1101,22.89555885123541
1141,22.575692931964228
1181,21.825510258157978
1221,22.115587021500845
1261,21.731135832416645
1301,22.742880361742455
1341,23.89776069856168
1381,23.963486923101489
1421,24.66334492986972
1461,21.17790273857947
1501,21.946293399572025
1541,20.913538357989187
1581,20.749375048397828
1621,22.940137331115225
1661,20.820847914933464
2,1, 7,21, 0, 6, 0.00,10.00,SummerDesignDay
8,13.438688835118548
10,36033262.61286768
1775,0.0
1812,0.0
2,1, 7,21, 0, 6,10.00,20.00,SummerDesignDay
8,13.454493322631063
10,36033262.61286768
1775,0.0
1812,0.0
2,1, 7,21, 0, 6,20.00,30.00,SummerDesignDay
8,13.470289340350983
10,36033262.61286768
1775,0.0
1812,0.0
2,1, 7,21, 0, 6,30.00,40.00,SummerDesignDay
8,13.486076034032447
10,36033262.61286768
1775,0.0
1812,0.0
2,1, 7,21, 0, 6,40.00,50.00,SummerDesignDay
8,13.50185415824011
10,36033262.61286768
1775,0.0
1812,0.0
2,1, 7,21, 0, 6,50.00,60.00,SummerDesignDay
8,13.517617463812285
10,36033262.61286768
1775,0.0
1812,0.0
2,1, 7,21, 0, 6, 0.00,60.00,SummerDesignDay
901,18.822110044919499
941,18.826250336628559
981,19.749299801686179
1021,21.397558987237689
1061,21.328925794345
1101,23.12696049318701
1141,22.466694935794693
1181,21.72399865146959
1221,21.98626939404196
1261,21.540284651975598
1301,22.6152752615172
1341,23.904227741387918
1381,23.830845234911803
1421,24.538330843197064
1461,21.12739932190796
1501,21.78638021144104
1541,20.797072484908737
1581,20.941374281101976
1621,22.74889993370776
1661,20.697667758633317
2,1, 7,21, 0, 7, 0.00,10.00,SummerDesignDay
8,13.572736920571789
10,36033262.61286768
1775,0.0
1812,10805271.937108858
2,1, 7,21, 0, 7,10.00,20.00,SummerDesignDay
8,13.627748229152554
10,36033262.61286768
1775,0.0
1812,0.0
2,1, 7,21, 0, 7,20.00,30.00,SummerDesignDay
8,13.682651961920304
10,36033262.61286768
1775,0.0
1812,0.0
2,1, 7,21, 0, 7,30.00,40.00,SummerDesignDay
8,13.737448093244995
10,36033262.61286768
1775,0.0
1812,5368467.278338289
2,1, 7,21, 0, 7,40.00,50.00,SummerDesignDay
8,13.792137011831216
10,36033262.61286768
1775,0.0
1812,2889588.855303265
2,1, 7,21, 0, 7,50.00,60.00,SummerDesignDay
8,13.846719282840333
10,36033262.61286768
1775,0.0
1812,3006333.5002490396
2,1, 7,21, 0, 7, 0.00,60.00,SummerDesignDay
901,19.304979814348405
941,19.29924407255127
981,20.715744451512099
1021,21.70797063051944
1061,21.73195393799685
1101,23.543163068623046
1141,22.518205103386238
1181,21.788854855843625
1221,22.023605567825997
1261,21.566178142797438
1301,22.640580098766976
1341,23.837956604964533
1381,23.78150671731237
1421,23.942213541079444
1461,21.212697037710979
1501,21.847697613673103
1541,20.924159129780045
1581,21.378084053993875
1621,22.703482309107135
1661,20.844060368762415
2,1, 7,21, 0, 8, 0.00,10.00,SummerDesignDay
8,13.978831900527043
10,80848202.13973896
1775,12327551.41975665
1812,6199137.915715266
2,1, 7,21, 0, 8,10.00,20.00,SummerDesignDay
8,14.110321014287419
10,80848202.13973896
1775,0.0
1812,16968982.68094217
2,1, 7,21, 0, 8,20.00,30.00,SummerDesignDay
8,14.241191509616986
10,80848202.13973896
1775,0.0
1812,17345465.363973015
2,1, 7,21, 0, 8,30.00,40.00,SummerDesignDay
8,14.371447531304272
10,80848202.13973896
1775,0.0
1812,19606116.12043585
2,1, 7,21, 0, 8,40.00,50.00,SummerDesignDay
8,14.501093766564925
10,80848202.13973896
1775,0.0
1812,21573645.780307518
2,1, 7,21, 0, 8,50.00,60.00,SummerDesignDay
8,14.630134792273804
10,80848202.13973896
1775,0.0
1812,27726686.24867049
2,1, 7,21, 0, 8, 0.00,60.00,SummerDesignDay
901,20.64974438498087
941,20.63436346206309
981,22.27008903012124
1021,22.63984361386943
1061,23.217312185590929
1101,23.986808877903397
1141,23.154573071053578
1181,22.42713952486791
1221,22.689994217023409
1261,21.94193650939366
1301,23.206147074559636
1341,23.989291483932733
1381,23.982226454180578
1421,23.99999999783343
1461,21.71955732475375
1501,22.2726966411695
1541,21.46112694084337
1581,22.196193794071037
1621,23.16854946244573
1661,21.442611285686355
2,1, 7,21, 0, 9, 0.00,10.00,SummerDesignDay
8,14.773641492809972
10,237568772.82363434
1775,21730468.413340857
1812,83109722.39073399
2,1, 7,21, 0, 9,10.00,20.00,SummerDesignDay
8,14.91640948124148
10,237568772.82363434
1775,0.0
1812,115208360.45139045
2,1, 7,21, 0, 9,20.00,30.00,SummerDesignDay
8,15.05843890714102
10,237568772.82363434
1775,0.0
1812,153567253.59960107
2,1, 7,21, 0, 9,30.00,40.00,SummerDesignDay
8,15.199735893563798
10,237568772.82363434
1775,0.0
1812,173163675.5535967
2,1, 7,21, 0, 9,40.00,50.00,SummerDesignDay
8,15.340306256439395
10,237568772.82363434
1775,0.0
1812,191333881.34085126
2,1, 7,21, 0, 9,50.00,60.00,SummerDesignDay
8,15.48015101768072
10,237568772.82363434
1775,0.0
1812,208487585.23193736
2,1, 7,21, 0, 9, 0.00,60.00,SummerDesignDay
901,22.968445087319269
941,23.013712184883035
981,23.923327609393483
1021,23.84800252813194
1061,23.999988976225084
1101,23.999999999998477
1141,23.9755748167169
1181,23.65732003899652
1221,23.881462302877
1261,23.204425116367003
1301,23.9713858565789
1341,24.000000000000005
1381,24.0
1421,24.00000000000001
1461,22.656433652205398
1501,23.400423752572583
1541,22.768667186183707
1581,23.3366806967091
1621,23.957031142249894
1661,22.49190262091614
2,1, 7,21, 0,10, 0.00,10.00,SummerDesignDay
8,15.60467292907716
10,317212484.9831342
1775,0.0
1812,315285820.1957383
2,1, 7,21, 0,10,10.00,20.00,SummerDesignDay
8,15.72862731650033
10,317212484.9831342
1775,0.0
1812,363713533.78714236
2,1, 7,21, 0,10,20.00,30.00,SummerDesignDay
8,15.852017409284228
10,317212484.9831342
1775,0.0
1812,385177826.394446
2,1, 7,21, 0,10,30.00,40.00,SummerDesignDay
8,15.974848118364367
10,317212484.9831342
1775,0.0
1812,418096721.2186114
2,1, 7,21, 0,10,40.00,50.00,SummerDesignDay
8,16.097123145563505
10,317212484.9831342
1775,0.0
1812,452345224.2916369
2,1, 7,21, 0,10,50.00,60.00,SummerDesignDay
8,16.218846351168599
10,317212484.9831342
1775,0.0
1812,482217884.58759626
2,1, 7,21, 0,10, 0.00,60.00,SummerDesignDay
901,23.998494408382979
941,23.998723397304916
981,23.999999965709237
1021,23.99999999975852
1061,24.000000000000033
1101,24.000000000000058
1141,23.99999999999395
1181,23.99999992106208
1221,23.999999999636616
1261,23.999014097599969
1301,23.999999999996438
1341,24.000000000000026
1381,24.0
1421,24.00000000000003
1461,23.75925563059629
1501,23.999693640871084
1541,23.984760069848659
1581,23.99873060526957
1621,23.999999999985677
1661,23.826441620934955
2,1, 7,21, 0,11, 0.00,10.00,SummerDesignDay
8,16.325793027093189
10,322153443.86155197
1775,0.0
1812,531497769.6676602
2,1, 7,21, 0,11,10.00,20.00,SummerDesignDay
8,16.432322158488288
10,322153443.86155197
1775,0.0
1812,558678863.7147735
2,1, 7,21, 0,11,20.00,30.00,SummerDesignDay
8,16.538424180249178
10,322153443.86155197
1775,0.0
1812,583094981.1733813
2,1, 7,21, 0,11,30.00,40.00,SummerDesignDay
8,16.644108396469087
10,322153443.86155197
1775,0.0
1812,606064809.7546251
2,1, 7,21, 0,11,40.00,50.00,SummerDesignDay
8,16.749376736593655
10,322153443.86155197
1775,0.0
1812,627681737.4202386
2,1, 7,21, 0,11,50.00,60.00,SummerDesignDay
8,16.854232613237156
10,322153443.86155197
1775,0.0
1812,649087126.4440503
2,1, 7,21, 0,11, 0.00,60.00,SummerDesignDay
901,23.999999959725728
941,23.999999961779158
981,23.999999999999266
1021,24.00000000000003
1061,23.999999999999984
1101,24.00000000000001
1141,24.00000000000004
1181,24.0
1221,23.99999999999999
1261,23.999999999639696
1301,24.000000000000015
1341,23.99999999999997
1381,24.00000000000001
1421,24.000000000000019
1461,23.99994441540375
1501,23.99999999977307
1541,23.99999991958866
1581,23.999999980409105
1621,24.000000000000026
1661,25.19871120525598
2,1, 7,21, 0,12, 0.00,10.00,SummerDesignDay
8,16.92390823520069
10,327094402.73996976
1775,0.0
1812,671920340.7243528
2,1, 7,21, 0,12,10.00,20.00,SummerDesignDay
8,16.99340178950456
10,327094402.73996976
1775,0.0
1812,687923865.9800432
2,1, 7,21, 0,12,20.00,30.00,SummerDesignDay
8,17.06272006743463
10,327094402.73996976
1775,0.0
1812,703633713.5517637
2,1, 7,21, 0,12,30.00,40.00,SummerDesignDay
8,17.131853229172639
10,327094402.73996976
1775,0.0
1812,719312718.0150926
2,1, 7,21, 0,12,40.00,50.00,SummerDesignDay
8,17.200807172194087
10,327094402.73996976
1775,0.0
1812,734575837.2498441
2,1, 7,21, 0,12,50.00,60.00,SummerDesignDay
8,17.269582116758607
10,327094402.73996976
1775,0.0
1812,749605435.2438487
2,1, 7,21, 0,12, 0.00,60.00,SummerDesignDay
901,23.999999999996729
941,23.999999999996317
981,24.00000000000007
1021,24.000000000000019
1061,24.00000000000003
1101,24.000000000000019
1141,24.000000000000015
1181,24.000000000000019
1221,24.00000000000001
1261,24.000000000000026
1301,24.000000000000019
1341,24.00000000000003
1381,24.00000000000003
1421,24.0
1461,23.999999999191574
1501,23.99999999999999
1541,23.999999999998125
1581,23.999999999998836
1621,24.00000000000004
1661,26.316391229861897
2,1, 7,21, 0,13, 0.00,10.00,SummerDesignDay
8,17.32447360221357
10,327094402.73996976
1775,0.0
1812,763370433.3721823
2,1, 7,21, 0,13,10.00,20.00,SummerDesignDay
8,17.379251291230806
10,327094402.73996976
1775,0.0
1812,775759966.8330612
2,1, 7,21, 0,13,20.00,30.00,SummerDesignDay
8,17.433921312061729
10,327094402.73996976
1775,0.0
1812,787670437.7285806
2,1, 7,21, 0,13,30.00,40.00,SummerDesignDay
8,17.488473222557489
10,327094402.73996976
1775,0.0
1812,799476225.3370613
2,1, 7,21, 0,13,40.00,50.00,SummerDesignDay
8,17.542913447755134
10,327094402.73996976
1775,0.0
1812,811075765.3272622
2,1, 7,21, 0,13,50.00,60.00,SummerDesignDay
8,17.59724609886134
10,327094402.73996976
1775,0.0
1812,822402500.7007557
2,1, 7,21, 0,13, 0.00,60.00,SummerDesignDay
901,24.000000000000026
941,24.00000000000004
981,24.000000000000104
1021,24.000000000000044
1061,24.000000000000097
1101,24.000000000000015
1141,24.00000000000003
1181,24.000000000000015
1221,24.00000000000001
1261,24.000000000000019
1301,24.000000000000033
1341,24.00000000000004
1381,24.00000000000004
1421,24.00000000000001
1461,23.99999999999999
1501,24.000000000000033
1541,24.000000000000019
1581,24.000000000000015
1621,24.000000000000026
1661,27.121548057612455
2,1, 7,21, 0,14, 0.00,10.00,SummerDesignDay
8,17.6311450462694
10,327094402.73996976
1775,0.0
1812,828753969.9410864
2,1, 7,21, 0,14,10.00,20.00,SummerDesignDay
8,17.665000449016245
10,327094402.73996976
1775,0.0
1812,836042439.0422635
2,1, 7,21, 0,14,20.00,30.00,SummerDesignDay
8,17.698812743128934
10,327094402.73996976
1775,0.0
1812,843251882.2286884
2,1, 7,21, 0,14,30.00,40.00,SummerDesignDay
8,17.732582050940107
10,327094402.73996976
1775,0.0
1812,850494504.6301255
2,1, 7,21, 0,14,40.00,50.00,SummerDesignDay
8,17.766307345121004
10,327094402.73996976
1775,0.0
1812,857816190.540698
2,1, 7,21, 0,14,50.00,60.00,SummerDesignDay
8,17.79999023167558
10,327094402.73996976
1775,0.0
1812,865205623.2031356
2,1, 7,21, 0,14, 0.00,60.00,SummerDesignDay
901,24.0
941,24.0
981,24.00000000000011
1021,24.00000000000006
1061,24.00000000000008
1101,24.000000000000058
1141,24.00000000000003
1181,23.999999999999998
1221,24.000000000000019
1261,24.000000000000058
1301,24.00000000000001
1341,24.000000000000015
1381,24.00000000000001
1421,24.000000000000033
1461,24.000000000000015
1501,24.000000000000019
1541,24.000000000000015
1581,24.000000000000026
1621,24.0
1661,27.703929837096536
2,1, 7,21, 0,15, 0.00,10.00,SummerDesignDay
8,17.79999023167558
10,327094402.73996976
1775,0.0
1812,965627615.2168976
2,1, 7,21, 0,15,10.00,20.00,SummerDesignDay
8,17.79999023167558
10,327094402.73996976
1775,0.0
1812,876901547.6349325
2,1, 7,21, 0,15,20.00,30.00,SummerDesignDay
8,17.79999023167558
10,327094402.73996976
1775,0.0
1812,926801686.5739685
2,1, 7,21, 0,15,30.00,40.00,SummerDesignDay
8,17.79999023167558
10,327094402.73996976
1775,0.0
1812,928136369.6037213
2,1, 7,21, 0,15,40.00,50.00,SummerDesignDay
8,17.79999023167558
10,327094402.73996976
1775,0.0
1812,925130807.7127526
2,1, 7,21, 0,15,50.00,60.00,SummerDesignDay
8,17.79999023167558
10,327094402.73996976
1775,0.0
1812,926838162.4067587
2,1, 7,21, 0,15, 0.00,60.00,SummerDesignDay
901,24.000000000000047
941,23.999999999999987
981,23.999999999999959
1021,24.00000000000004
1061,24.00000000000003
1101,24.0
1141,23.999999999999998
1181,24.00000000000001
1221,24.000000000000005
1261,24.000000000000005
1301,24.00000000000001
1341,24.000000000000026
1381,24.000000000000033
1421,24.000000000000033
1461,24.00000000000001
1501,23.999999999999987
1541,23.99999999999999
1581,23.999999999999998
1621,24.0
1661,23.89436867217388
2,1, 7,21, 0,16, 0.00,10.00,SummerDesignDay
8,17.759562446305357
10,336420575.12235358
1775,0.0
1812,921097352.7921136
2,1, 7,21, 0,16,10.00,20.00,SummerDesignDay
8,17.71907809634183
10,336420575.12235358
1775,0.0
1812,914341107.9794152
2,1, 7,21, 0,16,20.00,30.00,SummerDesignDay
8,17.67853788661001
10,336420575.12235358
1775,0.0
1812,906938584.7416631
2,1, 7,21, 0,16,30.00,40.00,SummerDesignDay
8,17.63791796367351
10,336420575.12235358
1775,0.0
1812,899158668.9154751
2,1, 7,21, 0,16,40.00,50.00,SummerDesignDay
8,17.59724609886134
10,336420575.12235358
1775,0.0
1812,891083555.0507887
2,1, 7,21, 0,16,50.00,60.00,SummerDesignDay
8,17.55650676726033
10,336420575.12235358
1775,0.0
1812,882737710.3963175
2,1, 7,21, 0,16, 0.00,60.00,SummerDesignDay
901,24.00000000000006
941,24.0
981,24.000000000000026
1021,23.999999999999987
1061,23.999999999999998
1101,24.00000000000003
1141,24.000000000000033
1181,24.00000000000001
1221,24.000000000000019
1261,23.999999999999998
1301,24.0
1341,24.000000000000019
1381,24.0
1421,24.000000000000015
1461,24.000000000000015
1501,24.000000000000069
1541,23.999999999999987
1581,23.99999999999999
1621,24.000000000000033
1661,23.99999874514982
2,1, 7,21, 0,17, 0.00,10.00,SummerDesignDay
8,17.50209486331892
10,330600623.5599505
1775,0.0
1812,871085386.9917051
2,1, 7,21, 0,17,10.00,20.00,SummerDesignDay
8,17.447570789624618
10,330600623.5599505
1775,0.0
1812,859930721.4777756
2,1, 7,21, 0,17,20.00,30.00,SummerDesignDay
8,17.392929544208135
10,330600623.5599505
1775,0.0
1812,848401221.1212304
2,1, 7,21, 0,17,30.00,40.00,SummerDesignDay
8,17.33818013976614
10,330600623.5599505
1775,0.0
1812,836703312.1870077
2,1, 7,21, 0,17,40.00,50.00,SummerDesignDay
8,17.283317298559309
10,330600623.5599505
1775,0.0
1812,824828005.3855673
2,1, 7,21, 0,17,50.00,60.00,SummerDesignDay
8,17.22833552437677
10,330600623.5599505
1775,0.0
1812,812774437.3950813
2,1, 7,21, 0,17, 0.00,60.00,SummerDesignDay
901,24.000000000000026
941,24.000000000000015
981,24.000000000000044
1021,24.000000000000055
1061,24.00000000000008
1101,23.999999999999984
1141,24.000000000000047
1181,24.000000000000015
1221,24.00000000000003
1261,24.000000000000015
1301,24.000000000000026
1341,24.0
1381,24.0
1421,24.000000000000033
1461,24.000000000000005
1501,24.000000000000019
1541,24.0
1581,23.999999999999984
1621,24.000000000000033
1661,23.99999999994556
2,1, 7,21, 0,18, 0.00,10.00,SummerDesignDay
8,17.159453019160176
10,310492165.9131393
1775,0.0
1812,776052918.4236343
2,1, 7,21, 0,18,10.00,20.00,SummerDesignDay
8,17.090391773337136
10,310492165.9131393
1775,0.0
1812,758626384.6147251
2,1, 7,21, 0,18,20.00,30.00,SummerDesignDay
8,17.021151077964786
10,310492165.9131393
1775,0.0
1812,741587007.3398364
2,1, 7,21, 0,18,30.00,40.00,SummerDesignDay
8,16.951729380464653
10,310492165.9131393
1775,0.0
1812,724612611.9020314
2,1, 7,21, 0,18,40.00,50.00,SummerDesignDay
8,16.882126503829249
10,310492165.9131393
1775,0.0
1812,707766341.3384087
2,1, 7,21, 0,18,50.00,60.00,SummerDesignDay
8,16.812341807494034
10,310492165.9131393
1775,0.0
1812,690104569.4937149
2,1, 7,21, 0,18, 0.00,60.00,SummerDesignDay
901,24.000000000000033
941,24.00000000000004
981,24.0
1021,24.000000000000015
1061,24.00000000000011
1101,24.000000000000019
1141,24.000000000000044
1181,24.000000000000033
1221,24.000000000000026
1261,24.000000000000055
1301,24.00000000000001
1341,24.00000000000003
1381,24.000000000000019
1421,24.000000000000015
1461,24.000000000000005
1501,24.000000000000019
1541,24.000000000000019
1581,23.99999999999999
1621,24.000000000000026
1661,23.99999999999999
2,1, 7,21, 0,19, 0.00,10.00,SummerDesignDay
8,16.707321072823203
10,238069393.65913106
1775,0.0
1812,612286273.3265524
2,1, 7,21, 0,19,10.00,20.00,SummerDesignDay
8,16.601881826644556
10,238069393.65913106
1775,0.0
1812,582929311.598609
2,1, 7,21, 0,19,20.00,30.00,SummerDesignDay
8,16.496030555252849
10,238069393.65913106
1775,0.0
1812,555972932.5070207
2,1, 7,21, 0,19,30.00,40.00,SummerDesignDay
8,16.389760181474104
10,238069393.65913106
1775,0.0
1812,529255000.20033547
2,1, 7,21, 0,19,40.00,50.00,SummerDesignDay
8,16.283067654262039
10,238069393.65913106
1775,0.0
1812,502114005.72616609
2,1, 7,21, 0,19,50.00,60.00,SummerDesignDay
8,16.17595057957811
10,238069393.65913106
1775,0.0
1812,475070464.4206914
2,1, 7,21, 0,19, 0.00,60.00,SummerDesignDay
901,24.000000000000026
941,23.99999999999999
981,24.00000000000004
1021,24.00000000000001
1061,24.000000000000005
1101,24.00000000000003
1141,24.000000000000005
1181,24.000000000000005
1221,24.000000000000019
1261,24.00000000000003
1301,24.00000000000003
1341,24.00000000000003
1381,24.000000000000019
1421,23.99999999999997
1461,24.000000000000026
1501,24.000000000000005
1541,24.000000000000005
1581,23.999999999999984
1621,23.999999999999998
1661,24.000000000000026
2,1, 7,21, 0,20, 0.00,10.00,SummerDesignDay
8,16.097123145563505
10,177482647.8942723
1775,0.0
1812,417079279.69512286
2,1, 7,21, 0,20,10.00,20.00,SummerDesignDay
8,16.018070242471564
10,177482647.8942723
1775,0.0
1812,392308751.7434889
2,1, 7,21, 0,20,20.00,30.00,SummerDesignDay
8,15.938779752340516
10,177482647.8942723
1775,0.0
1812,370285323.06244638
2,1, 7,21, 0,20,30.00,40.00,SummerDesignDay
8,15.85926152575189
10,177482647.8942723
1775,0.0
1812,348192436.949912
2,1, 7,21, 0,20,40.00,50.00,SummerDesignDay
8,15.779503718563929
10,177482647.8942723
1775,0.0
1812,326058118.5664648
2,1, 7,21, 0,20,50.00,60.00,SummerDesignDay
8,15.699515709672767
10,177482647.8942723
1775,0.0
1812,303645431.4492498
2,1, 7,21, 0,20, 0.00,60.00,SummerDesignDay
901,24.000000000000019
941,24.000000000000019
981,24.00000000000001
1021,24.000000000000026
1061,24.000000000000015
1101,24.000000000000069
1141,23.999999999999998
1181,24.0
1221,23.99999999999999
1261,24.000000000000026
1301,24.000000000000005
1341,23.999999999999987
1381,24.00000000000001
1421,24.00000000000001
1461,24.00000000000001
1501,24.000000000000015
1541,24.000000000000019
1581,24.000000000000005
1621,24.000000000000015
1661,24.00000000000003
2,1, 7,21, 0,21, 0.00,10.00,SummerDesignDay
8,15.63389147320404
10,170252708.0654734
1775,0.0
1812,279062940.3085183
2,1, 7,21, 0,21,10.00,20.00,SummerDesignDay
8,15.56810827419793
10,170252708.0654734
1775,0.0
1812,258129264.13284699
2,1, 7,21, 0,21,20.00,30.00,SummerDesignDay
8,15.502170882753524
10,170252708.0654734
1775,0.0
1812,238560691.39403875
2,1, 7,21, 0,21,30.00,40.00,SummerDesignDay
8,15.436068032613852
10,170252708.0654734
1775,0.0
1812,222232184.9567495
2,1, 7,21, 0,21,40.00,50.00,SummerDesignDay
8,15.369804371206009
10,170252708.0654734
1775,0.0
1812,205977851.59871189
2,1, 7,21, 0,21,50.00,60.00,SummerDesignDay
8,15.303384603594449
10,170252708.0654734
1775,0.0
1812,190361666.0147395
2,1, 7,21, 0,21, 0.00,60.00,SummerDesignDay
901,23.886223282183069
941,23.890178107868818
981,24.000000000000005
1021,24.00000000000001
1061,24.000000000000019
1101,24.000000000000015
1141,24.000000000000019
1181,24.0
1221,24.000000000000019
1261,23.999999999999998
1301,24.00000000000001
1341,24.000000000000015
1381,24.00000000000001
1421,24.00000000000001
1461,23.995376013294373
1501,24.00000000000001