Program Version,EnergyPlus, Version 8.9.0-eba93e8e1b, YMD=2019.03.19 18:35
1,5,Environment Title[],Latitude[deg],Longitude[deg],Time Zone[],Elevation[m]
2,8,Day of Simulation[],Month[],Day of Month[],DST Indicator[1=yes 0=no],Hour[],StartMinute[],EndMinute[],DayType
3,5,Cumulative Day of Simulation[],Month[],Day of Month[],DST Indicator[1=yes 0=no],DayType  ! When Daily Report Variables Requested
4,2,Cumulative Days of Simulation[],Month[]  ! When Monthly Report Variables Requested
5,1,Cumulative Days of Simulation[] ! When Run Period Report Variables Requested
6,1,Calendar Year of Simulation[] ! When Annual Report Variables Requested
7,9,Environment,Site Outdoor Air Drybulb Temperature [C] !Monthly [Value,Min,Day,Hour,Minute,Max,Day,Hour,Minute]
8,1,Environment,Site Outdoor Air Wetbulb Temperature [C] !TimeStep
904,1,ALL_ST=COURTHOUSE - CHAMBERS_FL=STORY 2_SCH=A,Zone Air Temperature [C] !Hourly
905,7,ALL_ST=COURTHOUSE - CHAMBERS_FL=STORY 2_SCH=A,Zone Air Relative Humidity [%] !Daily [Value,Min,Hour,Minute,Max,Hour,Minute]
944,1,ALL_ST=COURTHOUSE - COURTROOM_FL=STORY 2_SCH=A,Zone Air Temperature [C] !Hourly
945,7,ALL_ST=COURTHOUSE - COURTROOM_FL=STORY 2_SCH=A,Zone Air Relative Humidity [%] !Daily [Value,Min,Hour,Minute,Max,Hour,Minute]
984,1,DU_BT=SPACE FUNCTION_ST=COURTHOUSE - CELL_FL=STORY 3_SCHH,Zone Air Temperature [C] !Hourly
985,7,DU_BT=SPACE FUNCTION_ST=COURTHOUSE - CELL_FL=STORY 3_SCHH,Zone Air Relative Humidity [%] !Daily [Value,Min,Hour,Minute,Max,Hour,Minute]
1024,1,WILD_ST=CORR. < 2.4M WIDE-SCH-B_FL=STORY 4_SCH=A,Zone Air Temperature [C] !Hourly
1025,7,WILD_ST=CORR. < 2.4M WIDE-SCH-B_FL=STORY 4_SCH=A,Zone Air Relative Humidity [%] !Daily [Value,Min,Hour,Minute,Max,Hour,Minute]
1064,1,WILD_ST=CORR. < 2.4M WIDE-SCH-C_FL=STORY 3_SCH=A,Zone Air Temperature [C] !Hourly
1065,7,WILD_ST=CORR. < 2.4M WIDE-SCH-C_FL=STORY 3_SCH=A,Zone Air Relative Humidity [%] !Daily [Value,Min,Hour,Minute,Max,Hour,Minute]
1104,1,WILD_ST=CORR. < 2.4M WIDE-SCH-D_FL=STORY 4_SCH=A,Zone Air Temperature [C] !Hourly
1105,7,WILD_ST=CORR. < 2.4M WIDE-SCH-D_FL=STORY 4_SCH=A,Zone Air Relative Humidity [%] !Daily [Value,Min,Hour,Minute,Max,Hour,Minute]
1144,1,WILD_ST=CORR. < 2.4M WIDE-SCH-E_FL=STORY 3_SCH=A,Zone Air Temperature [C] !Hourly
1145,7,WILD_ST=CORR. < 2.4M WIDE-SCH-E_FL=STORY 3_SCH=A,Zone Air Relative Humidity [%] !Daily [Value,Min,Hour,Minute,Max,Hour,Minute]
1184,1,WILD_ST=CORR. < 2.4M WIDE-SCH-F_FL=STORY 3_SCH=A,Zone Air Temperature [C] !Hourly
1185,7,WILD_ST=CORR. < 2.4M WIDE-SCH-F_FL=STORY 3_SCH=A,Zone Air Relative Humidity [%] !Daily [Value,Min,Hour,Minute,Max,Hour,Minute]
1224,1,WILD_ST=CORR. < 2.4M WIDE-SCH-G_FL=STORY 3_SCH=A,Zone Air Temperature [C] !Hourly
1225,7,WILD_ST=CORR. < 2.4M WIDE-SCH-G_FL=STORY 3_SCH=A,Zone Air Relative Humidity [%] !Daily [Value,Min,Hour,Minute,Max,Hour,Minute]
1264,1,WILD_ST=CORR. < 2.4M WIDE-SCH-H_FL=STORY 1_SCH=A,Zone Air Temperature [C] !Hourly
1265,7,WILD_ST=CORR. < 2.4M WIDE-SCH-H_FL=STORY 1_SCH=A,Zone Air Relative Humidity [%] !Daily [Value,Min,Hour,Minute,Max,Hour,Minute]
1304,1,WILD_ST=CORR. < 2.4M WIDE-SCH-I_FL=STORY 4_SCH=A,Zone Air Temperature [C] !Hourly
1305,7,WILD_ST=CORR. < 2.4M WIDE-SCH-I_FL=STORY 4_SCH=A,Zone Air Relative Humidity [%] !Daily [Value,Min,Hour,Minute,Max,Hour,Minute]
1344,1,WILD_ST=CORR. >= 2.4M WIDE-SCH-A_FL=STORY 4_SCH=A,Zone Air Temperature [C] !Hourly
1345,7,WILD_ST=CORR. >= 2.4M WIDE-SCH-A_FL=STORY 4_SCH=A,Zone Air Relative Humidity [%] !Daily [Value,Min,Hour,Minute,Max,Hour,Minute]
1384,1,WILD_ST=CORR. >= 2.4M WIDE-SCH-B_FL=STORY 1_SCH=A,Zone Air Temperature [C] !Hourly
1385,7,WILD_ST=CORR. >= 2.4M WIDE-SCH-B_FL=STORY 1_SCH=A,Zone Air Relative Humidity [%] !Daily [Value,Min,Hour,Minute,Max,Hour,Minute]
1424,1,WILD_ST=CORR. >= 2.4M WIDE-SCH-C_FL=STORY 1_SCH=A,Zone Air Temperature [C] !Hourly
1425,7,WILD_ST=CORR. >= 2.4M WIDE-SCH-C_FL=STORY 1_SCH=A,Zone Air Relative Humidity [%] !Daily [Value,Min,Hour,Minute,Max,Hour,Minute]
1464,1,WILD_ST=CORR. >= 2.4M WIDE-SCH-D_FL=STORY 2_SCH=A,Zone Air Temperature [C] !Hourly
1465,7,WILD_ST=CORR. >= 2.4M WIDE-SCH-D_FL=STORY 2_SCH=A,Zone Air Relative Humidity [%] !Daily [Value,Min,Hour,Minute,Max,Hour,Minute]
1504,1,WILD_ST=CORR. >= 2.4M WIDE-SCH-E_FL=STORY 1_SCH=A,Zone Air Temperature [C] !Hourly
1505,7,WILD_ST=CORR. >= 2.4M WIDE-SCH-E_FL=STORY 1_SCH=A,Zone Air Relative Humidity [%] !Daily [Value,Min,Hour,Minute,Max,Hour,Minute]
1544,1,WILD_ST=CORR. >= 2.4M WIDE-SCH-F_FL=STORY 2_SCH=A,Zone Air Temperature [C] !Hourly
1545,7,WILD_ST=CORR. >= 2.4M WIDE-SCH-F_FL=STORY 2_SCH=A,Zone Air Relative Humidity [%] !Daily [Value,Min,Hour,Minute,Max,Hour,Minute]
1584,1,WILD_ST=CORR. >= 2.4M WIDE-SCH-G_FL=STORY 1_SCH=A,Zone Air Temperature [C] !Hourly
1585,7,WILD_ST=CORR. >= 2.4M WIDE-SCH-G_FL=STORY 1_SCH=A,Zone Air Relative Humidity [%] !Daily [Value,Min,Hour,Minute,Max,Hour,Minute]
1624,1,WILD_ST=CORR. >= 2.4M WIDE-SCH-H_FL=STORY 4_SCH=A,Zone Air Temperature [C] !Hourly
1625,7,WILD_ST=CORR. >= 2.4M WIDE-SCH-H_FL=STORY 4_SCH=A,Zone Air Relative Humidity [%] !Daily [Value,Min,Hour,Minute,Max,Hour,Minute]
1664,1,WILD_ST=CORR. >= 2.4M WIDE-SCH-I_FL=STORY 2_SCH=A,Zone Air Temperature [C] !Hourly
1665,7,WILD_ST=CORR. >= 2.4M WIDE-SCH-I_FL=STORY 2_SCH=A,Zone Air Relative Humidity [%] !Daily [Value,Min,Hour,Minute,Max,Hour,Minute]
10,1,Electricity:Facility [J] !TimeStep
670,1,Gas:Facility [J] !TimeStep
End of Data Dictionary
1,FORT MCMURRAY AP ANN CLG .4% CONDNS DB=>MWB,  56.65,-111.22,  -7.00, 369.10
2,1, 7,21, 0, 1, 0.00,10.00,SummerDesignDay
8,14.218136923962174
10,49438018.77240184
670,16188325.830849395
2,1, 7,21, 0, 1,10.00,20.00,SummerDesignDay
8,14.171982153293495
10,49325830.91533737
670,16156403.412484009
2,1, 7,21, 0, 1,20.00,30.00,SummerDesignDay
8,14.125744780286427
10,49214569.48710209
670,16116709.709070895
2,1, 7,21, 0, 1,30.00,40.00,SummerDesignDay
8,14.079436086331978
10,49102782.13447885
670,16075453.09516816
2,1, 7,21, 0, 1,40.00,50.00,SummerDesignDay
8,14.033050387896898
10,48990435.19746549
670,20960155.344788895
2,1, 7,21, 0, 1,50.00,60.00,SummerDesignDay
8,13.986581233564835
10,48876911.03453787
670,21363519.625252166
2,1, 7,21, 0, 1, 0.00,60.00,SummerDesignDay
904,25.196174553494179
944,23.080933984324589
984,23.997010647574986
1024,23.67288705563044
1064,25.326719038298195
1104,23.96266266110847
1144,25.14207442129521
1184,25.25218015696144
1224,25.2560711771031
1264,25.161046128238256
1304,23.70469952553454
1344,23.972697977173256
1384,24.913448528455008
1424,24.805719200404565
1464,25.10170204061294
1504,24.954836800175216
1544,25.15100427698889
1584,24.873272815422955
1624,23.94890923880985
1664,25.397902452351166
2,1, 7,21, 0, 2, 0.00,10.00,SummerDesignDay
8,13.95555882260429
10,48784594.12326032
670,21369332.94550183
2,1, 7,21, 0, 2,10.00,20.00,SummerDesignDay
8,13.924507755336454
10,48691984.11492471
670,21375284.822884878
2,1, 7,21, 0, 2,20.00,30.00,SummerDesignDay
8,13.893416042989206
10,48599110.05386327
670,21381234.232741424
2,1, 7,21, 0, 2,30.00,40.00,SummerDesignDay
8,13.862289589689029
10,48506011.04502581
670,21387179.144325448
2,1, 7,21, 0, 2,40.00,50.00,SummerDesignDay
8,13.831134407608739
10,48412700.091029677
670,18602045.58133665
2,1, 7,21, 0, 2,50.00,60.00,SummerDesignDay
8,13.799938415548118
10,48319438.16420343
670,16173491.348020908
2,1, 7,21, 0, 2, 0.00,60.00,SummerDesignDay
904,25.03899458505388
944,22.74943575010916
984,23.997126081037309
1024,23.361033083947644
1064,25.16163459200438
1104,23.61780554372775
1144,24.90466577759642
1184,25.023599598308775
1224,25.053798258883267
1264,25.043449499318027
1304,23.367090765887907
1344,23.66497238176095
1384,24.805550618797395
1424,24.69941519345699
1464,24.931468549964945
1504,24.8382414658611
1544,25.04298920762459
1584,24.73425046706276
1624,23.633457836365854
1664,25.213871335260717
2,1, 7,21, 0, 3, 0.00,10.00,SummerDesignDay
8,13.776521671948676
10,48239095.669310729
670,16135353.48685727
2,1, 7,21, 0, 3,10.00,20.00,SummerDesignDay
8,13.753085235778466
10,48159029.74300063
670,16094716.514510185
2,1, 7,21, 0, 3,20.00,30.00,SummerDesignDay
8,13.729636002354969
10,48078932.254393007
670,18506523.63231247
2,1, 7,21, 0, 3,30.00,40.00,SummerDesignDay
8,13.706147375533054
10,47998621.958154398
670,21361431.854239946
2,1, 7,21, 0, 3,40.00,50.00,SummerDesignDay
8,13.682651961920304
10,47916924.47229564
670,21366606.038252448
2,1, 7,21, 0, 3,50.00,60.00,SummerDesignDay
8,13.659136670643687
10,47834773.26261299
670,21372526.761848604
2,1, 7,21, 0, 3, 0.00,60.00,SummerDesignDay
904,24.912083092615587
944,22.49031462325314
984,23.99722698765436
1024,23.10916194048451
1064,25.01450052907809
1104,23.339560774415248
1144,24.693959532892707
1184,24.821805081281949
1224,24.875121128236029
1264,24.9429623990128
1304,23.09272680014268
1344,23.411345284152547
1384,24.716555506812229
1424,24.61743425709048
1464,24.785496824164203
1504,24.739983135271229
1544,24.95139604533821
1584,24.611470366968708
1624,23.373979956676977
1664,25.05685446052799
2,1, 7,21, 0, 4, 0.00,10.00,SummerDesignDay
8,13.63560137410855
10,47752560.939898949
670,21378477.844774285
2,1, 7,21, 0, 4,10.00,20.00,SummerDesignDay
8,13.612040802606578
10,47670316.198013048
670,21384424.97233183
2,1, 7,21, 0, 4,20.00,30.00,SummerDesignDay
8,13.58846620506876
10,47588039.36380323
670,21009427.1234542
2,1, 7,21, 0, 4,30.00,40.00,SummerDesignDay
8,13.56487178447336
10,47505729.23046241
670,16188314.699099852
2,1, 7,21, 0, 4,40.00,50.00,SummerDesignDay
8,13.541257354069103
10,47424358.931402977
670,16153657.65882842
2,1, 7,21, 0, 4,50.00,60.00,SummerDesignDay
8,13.517617463812285
10,47343808.22607565
670,16113733.355230097
2,1, 7,21, 0, 4, 0.00,60.00,SummerDesignDay
904,24.79730264609952
944,22.25904194548214
984,23.997322096683559
1024,22.889930291076664
1064,24.877210094039513
1104,23.097644235730866
1144,24.497075440657885
1184,24.634148494969236
1224,24.708677194618788
1264,24.85128002223928
1304,22.852069425494205
1344,23.188596737027554
1384,24.63709037181212
1424,24.546782847105815
1464,24.65166580728699
1504,24.65119508446269
1544,24.868049548609773
1584,24.496946058875609
1624,23.14530053190227
1664,24.91426464073111
2,1, 7,21, 0, 5, 0.00,10.00,SummerDesignDay
8,13.50185415824011
10,47275976.75760338
670,16072386.282045648
2,1, 7,21, 0, 5,10.00,20.00,SummerDesignDay
8,13.486076034032447
10,47221461.88489121
670,21348689.169362606
2,1, 7,21, 0, 5,20.00,30.00,SummerDesignDay
8,13.470289340350983
10,47162203.91013202
670,21363927.048455884
2,1, 7,21, 0, 5,30.00,40.00,SummerDesignDay
8,13.454493322631063
10,47102472.160468008
670,21369768.45368059
2,1, 7,21, 0, 5,40.00,50.00,SummerDesignDay
8,13.438688835118548
10,47043539.49047475
670,21375720.85951942
2,1, 7,21, 0, 5,50.00,60.00,SummerDesignDay
8,13.422888173889437
10,46985608.96938192
670,21381669.976490864
2,1, 7,21, 0, 5, 0.00,60.00,SummerDesignDay
904,24.74953880467707
944,22.05344790907027
984,23.997396802997814
1024,22.739622124219435
1064,24.749148083373826
1104,22.937266102594234
1144,24.320344333826843
1184,24.558742191247587
1224,24.6150648476624
1264,24.76571767219954
1304,22.847654407658223
1344,23.143826581785345
1384,24.564064438879574
1424,24.482746662998549
1464,24.627059932755757
1504,24.5691046834738
1544,24.790968236128049
1584,24.38819332654282
1624,22.993461836326735
1664,24.791097267203413
2,1, 7,21, 0, 6, 0.00,10.00,SummerDesignDay
8,13.438688835118548
10,46984271.28108191
670,21387614.517037859
2,1, 7,21, 0, 6,10.00,20.00,SummerDesignDay
8,13.454493322631063
10,46981926.953283857
670,18221028.44113467
2,1, 7,21, 0, 6,20.00,30.00,SummerDesignDay
8,13.470289340350983
10,46980161.29367131
670,16170952.217947202
2,1, 7,21, 0, 6,30.00,40.00,SummerDesignDay
8,13.486076034032447
10,46980958.71962739
670,16132429.81789765
2,1, 7,21, 0, 6,40.00,50.00,SummerDesignDay
8,13.50185415824011
10,46983334.91818208
670,16091688.687862495
2,1, 7,21, 0, 6,50.00,60.00,SummerDesignDay
8,13.517617463812285
10,46987162.44289372
670,18893723.80890414
2,1, 7,21, 0, 6, 0.00,60.00,SummerDesignDay
904,24.809260021213107
944,21.966271311021769
984,23.997427451226416
1024,22.86457976726858
1064,24.69077090023883
1104,23.07094859254541
1144,24.2571264049806
1184,24.901197680539679
1224,24.65560856530044
1264,24.726190546702424
1304,23.600551102627006
1344,23.45871849556806
1384,24.538388839576056
1424,24.45602965921709
1464,25.007467122304616
1504,24.541586787098955
1544,24.767023152214848
1584,24.328241578235507
1624,23.135296369348628
1664,24.76786079836322
2,1, 7,21, 0, 7, 0.00,10.00,SummerDesignDay
8,13.572736920571789
10,50338019.25414185
670,21621102.17649675
2,1, 7,21, 0, 7,10.00,20.00,SummerDesignDay
8,13.627748229152554
10,47140534.165188018
670,21366509.760977266
2,1, 7,21, 0, 7,20.00,30.00,SummerDesignDay
8,13.682651961920304
10,48438439.12419707
670,21373233.985443269
2,1, 7,21, 0, 7,30.00,40.00,SummerDesignDay
8,13.737448093244995
10,48917288.89450415
670,21378979.906413594
2,1, 7,21, 0, 7,40.00,50.00,SummerDesignDay
8,13.792137011831216
10,48686936.49149693
670,21384926.61260537
2,1, 7,21, 0, 7,50.00,60.00,SummerDesignDay
8,13.846719282840333
10,48799417.58511504
670,20571282.16646187
2,1, 7,21, 0, 7, 0.00,60.00,SummerDesignDay
904,24.010453591119988
944,22.089300616894563
984,23.997715771336997
1024,23.2865006650144
1064,24.724976384852864
1104,23.500140847445633
1144,24.326663228651126
1184,25.37899705323137
1224,24.676265518101034
1264,24.751046264074359
1304,24.585537568144603
1344,23.800283544951986
1384,24.57671255063534
1424,24.482626059493446
1464,25.480204770362794
1504,24.60137722419881
1544,24.808725514855067
1584,24.33889017609327
1624,23.56648692521512
1664,24.84847183616908
2,1, 7,21, 0, 8, 0.00,10.00,SummerDesignDay
8,13.978831900527043
10,99438786.34815233
670,17415851.690021904
2,1, 7,21, 0, 8,10.00,20.00,SummerDesignDay
8,14.110321014287419
10,105212961.03068139
670,17521970.270551053
2,1, 7,21, 0, 8,20.00,30.00,SummerDesignDay
8,14.241191509616986
10,119697698.1462087
670,17495672.802179785
2,1, 7,21, 0, 8,30.00,40.00,SummerDesignDay
8,14.371447531304272
10,120250965.60636005
670,17468848.890110908
2,1, 7,21, 0, 8,40.00,50.00,SummerDesignDay
8,14.501093766564925
10,126269535.10511269
670,18773921.31004791
2,1, 7,21, 0, 8,50.00,60.00,SummerDesignDay
8,14.630134792273804
10,131208280.09844823
670,21957617.23917958
2,1, 7,21, 0, 8, 0.00,60.00,SummerDesignDay
904,23.999810900596825
944,22.963857970224866
984,23.997362445609999
1024,23.957333998967174
1064,24.817417893782208
1104,24.046739933737958
1144,24.373954620207316
1184,25.79522250444904
1224,24.761157571961264
1264,24.88214245870114
1304,25.571733024737239
1344,24.35429649101918
1384,24.70440906245373
1424,24.62119813337839
1464,25.84700086669379
1504,24.778850746617129
1544,24.90741817665176
1584,24.42360197575178
1624,24.07438541755106
1664,24.876787377275496
2,1, 7,21, 0, 9, 0.00,10.00,SummerDesignDay
8,14.773641492809972
10,254615334.05579967
670,27138187.650282574
2,1, 7,21, 0, 9,10.00,20.00,SummerDesignDay
8,14.91640948124148
10,264355294.4685959
670,28240610.03479518
2,1, 7,21, 0, 9,20.00,30.00,SummerDesignDay
8,15.05843890714102
10,269120744.56570968
670,28254421.608653446
2,1, 7,21, 0, 9,30.00,40.00,SummerDesignDay
8,15.199735893563798
10,274223916.91110649
670,28256717.128788629
2,1, 7,21, 0, 9,40.00,50.00,SummerDesignDay
8,15.340306256439395
10,279372506.85996857
670,28258119.73788901
2,1, 7,21, 0, 9,50.00,60.00,SummerDesignDay
8,15.48015101768072
10,284267566.7044863
670,28259520.70671358
2,1, 7,21, 0, 9, 0.00,60.00,SummerDesignDay
904,23.999138503004145
944,23.97478931391977
984,23.99752164417393
1024,23.999752168902984
1064,24.572422893866727
1104,23.724030202767144
1144,23.835734915102209
1184,25.520551938465247
1224,24.457389533037146
1264,24.844126512963816
1304,25.55694407766501
1344,24.25778897577584
1384,24.672405795125888
1424,24.66889206216484
1464,25.51488009012728
1504,24.785923233410104
1544,24.75961520586385
1584,24.276935001062499
1624,23.669421156441286
1664,24.306522335670125
2,1, 7,21, 0,10, 0.00,10.00,SummerDesignDay
8,15.60467292907716
10,313447319.3970374
670,28260919.776144405
2,1, 7,21, 0,10,10.00,20.00,SummerDesignDay
8,15.72862731650033
10,318197803.3590827
670,26399395.520126109
2,1, 7,21, 0,10,20.00,30.00,SummerDesignDay
8,15.852017409284228
10,322495502.0158242
670,25441419.546633606
2,1, 7,21, 0,10,30.00,40.00,SummerDesignDay
8,15.974848118364367
10,326662505.4002969
670,25437032.649794554
2,1, 7,21, 0,10,40.00,50.00,SummerDesignDay
8,16.097123145563505
10,330671113.921326
670,25432526.624098418
2,1, 7,21, 0,10,50.00,60.00,SummerDesignDay
8,16.218846351168599
10,334852680.17585137
670,25427977.18159258
2,1, 7,21, 0,10, 0.00,60.00,SummerDesignDay
904,23.998712487005134
944,23.996404215424474
984,23.997309226415536
1024,23.99959076932325
1064,24.23009258883675
1104,23.44280862809033
1144,23.42620588459887
1184,25.11279789256128
1224,24.113106878043117
1264,24.62255932832079
1304,25.3253561981776
1344,24.161709359663218
1384,24.48339734329606
1424,24.551107430601964
1464,25.023691834533449
1504,24.64643037706306
1544,24.484008631875466
1584,24.00091625804451
1624,23.47325665120375
1664,23.725782408575318
2,1, 7,21, 0,11, 0.00,10.00,SummerDesignDay
8,16.325793027093189
10,338893638.573284
670,29826114.478505427
2,1, 7,21, 0,11,10.00,20.00,SummerDesignDay
8,16.432322158488288
10,343056758.31540569
670,30210843.3501812
2,1, 7,21, 0,11,20.00,30.00,SummerDesignDay
8,16.538424180249178
10,346921938.5468244
670,36500696.25628687
2,1, 7,21, 0,11,30.00,40.00,SummerDesignDay
8,16.644108396469087
10,351125395.59353277
670,39596147.049421
2,1, 7,21, 0,11,40.00,50.00,SummerDesignDay
8,16.749376736593655
10,355295908.1722296
670,34039287.43055777
2,1, 7,21, 0,11,50.00,60.00,SummerDesignDay
8,16.854232613237156
10,359306773.4286687
670,30230209.953221226
2,1, 7,21, 0,11, 0.00,60.00,SummerDesignDay
904,23.998478882438226
944,23.995573407690278
984,23.99730878711365
1024,23.999535919243717
1064,23.972617660873767
1104,23.27234034066201
1144,23.327978532004438
1184,24.600589116074294
1224,23.880608639265735
1264,24.35632418619903
1304,24.796682729408145
1344,24.105610225616159
1384,24.262136982551437
1424,24.35696381021957
1464,24.4149160286547
1504,24.464362970204268
1544,24.226473915025357
1584,23.75642702777868
1624,23.580628380841988
1664,23.302362723245297
2,1, 7,21, 0,12, 0.00,10.00,SummerDesignDay
8,16.92390823520069
10,362344111.9144126
670,30222075.728690044
2,1, 7,21, 0,12,10.00,20.00,SummerDesignDay
8,16.99340178950456
10,365217894.419539
670,30213496.880949335
2,1, 7,21, 0,12,20.00,30.00,SummerDesignDay
8,17.06272006743463
10,367932677.6951455
670,33686990.11134453
2,1, 7,21, 0,12,30.00,40.00,SummerDesignDay
8,17.131853229172639
10,370491465.1695143
670,39590279.97053295
2,1, 7,21, 0,12,40.00,50.00,SummerDesignDay
8,17.200807172194087
10,372891314.730832
670,36850930.40285399
2,1, 7,21, 0,12,50.00,60.00,SummerDesignDay
8,17.269582116758607
10,375133758.7810549
670,30232309.443924834
2,1, 7,21, 0,12, 0.00,60.00,SummerDesignDay
904,23.998212321762329
944,23.99493573642948
984,23.997269757124049
1024,23.999538133029107
1064,23.81679071643994
1104,23.163478847295484
1144,23.392427105972105
1184,24.127239720206054
1224,23.749230802108984
1264,24.138697795206317
1304,24.202695548439566
1344,24.055836828369995
1384,24.090226486530864
1424,24.19390031465237
1464,23.849194171642315
1504,24.306611592621523
1544,24.031144952495557
1584,23.595536454967087
1624,23.75849419703962
1664,22.999603221129985
2,1, 7,21, 0,13, 0.00,10.00,SummerDesignDay
8,17.32447360221357
10,374356234.28206768
670,30224597.1409066
2,1, 7,21, 0,13,10.00,20.00,SummerDesignDay
8,17.379251291230806
10,375933358.34619167
670,30216093.58584664
2,1, 7,21, 0,13,20.00,30.00,SummerDesignDay
8,17.433921312061729
10,377401548.8984213
670,30876629.409836748
2,1, 7,21, 0,13,30.00,40.00,SummerDesignDay
8,17.488473222557489
10,378761564.5569229
670,39585243.4999652
2,1, 7,21, 0,13,40.00,50.00,SummerDesignDay
8,17.542913447755134
10,380019191.4926127
670,39605250.620522487
2,1, 7,21, 0,13,50.00,60.00,SummerDesignDay
8,17.59724609886134
10,381203269.7789993
670,30289234.935809666
2,1, 7,21, 0,13, 0.00,60.00,SummerDesignDay
904,23.998326273015768
944,23.99618247958449
984,23.99720822203271
1024,23.999631113698773
1064,23.741233347453734
1104,23.11413715294304
1144,23.498220008253609
1184,23.905623041080447
1224,23.699628781532707
1264,23.968220568299729
1304,23.943306919264676
1344,24.017643539696527
1384,23.959936706536295
1424,24.060496591613118
1464,23.55384594424068
1504,24.16359551306418
1544,23.887349819319956
1584,23.500931994972789
1624,23.86013666839383
1664,22.803231389229255
2,1, 7,21, 0,14, 0.00,10.00,SummerDesignDay
8,17.6311450462694
10,381886852.58765187
670,30227093.131482807
2,1, 7,21, 0,14,10.00,20.00,SummerDesignDay
8,17.665000449016245
10,382502687.4152839
670,30218675.193805424
2,1, 7,21, 0,14,20.00,30.00,SummerDesignDay
8,17.698812743128934
10,383052892.333148
670,30210012.094548908
2,1, 7,21, 0,14,30.00,40.00,SummerDesignDay
8,17.732582050940107
10,383539414.748261
670,37434984.02133174
2,1, 7,21, 0,14,40.00,50.00,SummerDesignDay
8,17.766307345121004
10,383972240.2126178
670,39598278.93124179
2,1, 7,21, 0,14,50.00,60.00,SummerDesignDay
8,17.79999023167558
10,384352448.7560601
670,33105817.518443385
2,1, 7,21, 0,14, 0.00,60.00,SummerDesignDay
904,23.998397519273487
944,23.99689890479492
984,23.997101102356468
1024,23.999762463196008
1064,23.763145324214606
1104,23.17732681532468
1144,23.604738182581444
1184,23.84737267767491
1224,23.74516999932686
1264,23.882574440066976
1304,23.86553478468724
1344,23.988476037780374
1384,23.909515638067224
1424,24.00074055917143
1464,23.43579893404703
1504,24.085164339677787
1544,23.830311626720826
1584,23.498229309945548
1624,23.819653412635259
1664,22.75730744352772
2,1, 7,21, 0,15, 0.00,10.00,SummerDesignDay
8,17.79999023167558
10,386394262.7047909
670,30229468.055822608
2,1, 7,21, 0,15,10.00,20.00,SummerDesignDay
8,17.79999023167558
10,386153014.1663588
670,30221233.33191077
2,1, 7,21, 0,15,20.00,30.00,SummerDesignDay
8,17.79999023167558
10,385812726.7629183
670,30212631.784291816
2,1, 7,21, 0,15,30.00,40.00,SummerDesignDay
8,17.79999023167558
10,385370947.22510489
670,34619873.95285711
2,1, 7,21, 0,15,40.00,50.00,SummerDesignDay
8,17.79999023167558
10,384789455.1296683
670,39592133.411121968
2,1, 7,21, 0,15,50.00,60.00,SummerDesignDay
8,17.79999023167558
10,384050145.5127233
670,35918636.94823371
2,1, 7,21, 0,15, 0.00,60.00,SummerDesignDay
904,23.998179579753697
944,23.995601115453167
984,23.996741609258007
1024,23.99976193475494
1064,23.897069432453013
1104,23.610294926049624
1144,23.696211656676426
1184,23.910863887005396
1224,23.89434359629094
1264,23.920850362852084
1304,23.831309412022958
1344,23.97342636761755
1384,23.971425358549067
1424,24.051933394341565
1464,23.451970647415775
1504,24.11406793823909
1544,23.888648612758005
1584,23.610332623528959
1624,23.622292353943906
1664,23.079756870889317
2,1, 7,21, 0,16, 0.00,10.00,SummerDesignDay
8,17.759562446305357
10,382258217.1876804
670,30231635.71396957
2,1, 7,21, 0,16,10.00,20.00,SummerDesignDay
8,17.71907809634183
10,380254532.8835002
670,30223763.703867765
2,1, 7,21, 0,16,20.00,30.00,SummerDesignDay
8,17.67853788661001
10,377981457.3903377
670,30215234.031620359
2,1, 7,21, 0,16,30.00,40.00,SummerDesignDay
8,17.63791796367351
10,375477919.25496146
670,31808633.664358278
2,1, 7,21, 0,16,40.00,50.00,SummerDesignDay
8,17.59724609886134
10,372734135.4553354
670,39586822.97022379
2,1, 7,21, 0,16,50.00,60.00,SummerDesignDay
8,17.55650676726033
10,369757820.2937322
670,38728516.16000353
2,1, 7,21, 0,16, 0.00,60.00,SummerDesignDay
904,23.997910573407709
944,23.99475460105519
984,23.996311064185254
1024,23.999672562955185
1064,24.113910713540937
1104,24.291404690523267
1144,23.801921279629153
1184,24.07836056410291
1224,24.122741002352016
1264,24.059196236882486
1304,23.815942775508373
1344,23.973742174909519
1384,24.102215819495205
1424,24.165285874828546
1464,23.580514468588097
1504,24.21417368459177
1544,24.027563419432594
1584,23.79403147337897
1624,23.358307020037747
1664,23.700551849539733
2,1, 7,21, 0,17, 0.00,10.00,SummerDesignDay
8,17.50209486331892
10,366236040.81956097
670,28336031.42480247
2,1, 7,21, 0,17,10.00,20.00,SummerDesignDay
8,17.447570789624618
10,362426845.5461034
670,28096012.88988697
2,1, 7,21, 0,17,20.00,30.00,SummerDesignDay
8,17.392929544208135
10,358704508.5578263
670,28089803.814419889
2,1, 7,21, 0,17,30.00,40.00,SummerDesignDay
8,17.33818013976614
10,355357908.0202051
670,28083623.41697595
2,1, 7,21, 0,17,40.00,50.00,SummerDesignDay
8,17.283317298559309
10,351969785.78127339
670,28077371.391393417
2,1, 7,21, 0,17,50.00,60.00,SummerDesignDay
8,17.22833552437677
10,348559552.6669166
670,28071040.949107928
2,1, 7,21, 0,17, 0.00,60.00,SummerDesignDay
904,23.99782399571175
944,23.99467372828109
984,23.995999827179053
1024,23.999688366272467
1064,24.420772536091446
1104,24.81135583537099
1144,24.040457780573325
1184,24.359749467232736
1224,24.437979956575334
1264,24.314338555360377
1304,23.82768240806306
1344,23.988390732192696
1384,24.311626627621015
1424,24.34999825263561
1464,23.83522347108422
1504,24.397788666997859
1544,24.25678582095263
1584,24.055539647004055
1624,23.214832313058485
1664,24.33682295505889
2,1, 7,21, 0,18, 0.00,10.00,SummerDesignDay
8,17.159453019160176
10,321636891.9744147
670,26339962.88491283
2,1, 7,21, 0,18,10.00,20.00,SummerDesignDay
8,17.090391773337136
10,317473540.2148246
670,28251373.479014704
2,1, 7,21, 0,18,20.00,30.00,SummerDesignDay
8,17.021151077964786
10,313711964.1814602
670,28252521.545397004
2,1, 7,21, 0,18,30.00,40.00,SummerDesignDay
8,16.951729380464653
10,309901511.1925447
670,28253915.214141568
2,1, 7,21, 0,18,40.00,50.00,SummerDesignDay
8,16.882126503829249
10,306218211.65340217
670,28255321.040944484
2,1, 7,21, 0,18,50.00,60.00,SummerDesignDay
8,16.812341807494034
10,302692797.4266446
670,28256725.38403332
2,1, 7,21, 0,18, 0.00,60.00,SummerDesignDay
904,23.998085323624129
944,23.995830132202799
984,23.995800108131126
1024,23.99977977845901
1064,24.758748343099428
1104,25.163072005103844
1144,24.421921190626468
1184,24.712753665150549
1224,24.790453056864466
1264,24.610742830747783
1304,23.88045797779954
1344,24.017726072870386
1384,24.540605530174007
1424,24.547950575845055
1464,24.18013242004307
1504,24.608461764190904
1544,24.524191663546419
1584,24.338588349043744
1624,23.305068769943217
1664,24.94276192639548
2,1, 7,21, 0,19, 0.00,10.00,SummerDesignDay
8,16.707321072823203
10,225146259.11319948
670,25033560.749521033
2,1, 7,21, 0,19,10.00,20.00,SummerDesignDay
8,16.601881826644556
10,220080053.93949265
670,24721547.799535984
2,1, 7,21, 0,19,20.00,30.00,SummerDesignDay
8,16.496030555252849
10,216138599.0629346
670,24722714.01674164
2,1, 7,21, 0,19,30.00,40.00,SummerDesignDay
8,16.389760181474104
10,212350639.61677597
670,24706963.921246508
2,1, 7,21, 0,19,40.00,50.00,SummerDesignDay
8,16.283067654262039
10,208758519.70240034
670,22043846.190168635
2,1, 7,21, 0,19,50.00,60.00,SummerDesignDay
8,16.17595057957811
10,205330400.92876486
670,22037911.639961915
2,1, 7,21, 0,19, 0.00,60.00,SummerDesignDay
904,23.998946472320396
944,23.99803309808245
984,23.99564007668889
1024,23.999888628762183
1064,25.02880060389712
1104,25.3362122606225
1144,24.813990349311906
1184,25.047228783716279
1224,25.100521641479817
1264,24.81433663593474
1304,23.968885574975393
1344,24.120918661729687
1384,24.67770580039131
1424,24.643290933463886
1464,24.53428883995714
1504,24.739253895045168
1544,24.734389557698113
1584,24.541903077735225
1624,23.57134173929069
1664,25.42085118646949
2,1, 7,21, 0,20, 0.00,10.00,SummerDesignDay
8,16.097123145563505
10,155108175.1966299
670,20168469.555349929
2,1, 7,21, 0,20,10.00,20.00,SummerDesignDay
8,16.018070242471564
10,151893183.1614957
670,19935081.25248744
2,1, 7,21, 0,20,20.00,30.00,SummerDesignDay
8,15.938779752340516
10,149297820.89366103
670,19922873.02188293
2,1, 7,21, 0,20,30.00,40.00,SummerDesignDay
8,15.85926152575189
10,146693278.93445439
670,19910354.610162788
2,1, 7,21, 0,20,40.00,50.00,SummerDesignDay
8,15.779503718563929
10,144086260.88576529
670,19897639.956575939
2,1, 7,21, 0,20,50.00,60.00,SummerDesignDay
8,15.699515709672767
10,141432276.20056675
670,21649317.376469815
2,1, 7,21, 0,20, 0.00,60.00,SummerDesignDay
904,23.99942499566525
944,23.999314858402867
984,23.995877247920317
1024,23.999950345131979
1064,25.210986541745187
1104,25.177606733981805
1144,25.084752397623235
1184,25.270058172997027
1224,25.36711772671116
1264,24.954673464578695
1304,24.024312766805467
1344,24.331954265407789
1384,24.756390238677999
1424,24.68145842213897
1464,24.802919078728988
1504,24.817224141970809
1544,24.885195914572369
1584,24.677050800753905
1624,23.8147820648164
1664,25.611341618422676
2,1, 7,21, 0,21, 0.00,10.00,SummerDesignDay
8,15.63389147320404
10,139037068.6984938
670,23255630.25603926
2,1, 7,21, 0,21,10.00,20.00,SummerDesignDay
8,15.56810827419793
10,136629651.7702314
670,23257466.77592133
2,1, 7,21, 0,21,20.00,30.00,SummerDesignDay
8,15.502170882753524
10,134216168.17100601
670,23259555.745641248
2,1, 7,21, 0,21,30.00,40.00,SummerDesignDay
8,15.436068032613852
10,131814992.18698325
670,23261651.028693949
2,1, 7,21, 0,21,40.00,50.00,SummerDesignDay
8,15.369804371206009
10,129486920.19837897
670,23263741.74280079
2,1, 7,21, 0,21,50.00,60.00,SummerDesignDay
8,15.303384603594449
10,126837545.06394996
670,23265827.633450465
2,1, 7,21, 0,21, 0.00,60.00,SummerDesignDay
904,23.999599689427538
944,23.999653515879094
984,23.996388744065546
1024,23.999975338524995
1064,25.36335654928551
1104,24.683393439863449
1144,25.248751225904188
1184,25.407681109603243
1224,25.529159544416186
1264,25.126330706632208
1304,24.031732297198518
1344,24.38338694765773
1384,24.876280898481939
1424,24.776893514605978
1464,24.995633314962956
1504,24.93162292869158
1544,25.039283040640698
1584,24.822932732317669
1624,23.941558081480826
1664,25.52977464185904
2,1, 7,21, 0,22, 0.00,10.00,SummerDesignDay