Program Version,EnergyPlus, Version 8.9.0-eba93e8e1b, YMD=2019.03.19 18:41
1,5,Environment Title[],Latitude[deg],Longitude[deg],Time Zone[],Elevation[m]
2,8,Day of Simulation[],Month[],Day of Month[],DST Indicator[1=yes 0=no],Hour[],StartMinute[],EndMinute[],DayType
3,5,Cumulative Day of Simulation[],Month[],Day of Month[],DST Indicator[1=yes 0=no],DayType  ! When Daily Report Variables Requested
4,2,Cumulative Days of Simulation[],Month[]  ! When Monthly Report Variables Requested
5,1,Cumulative Days of Simulation[] ! When Run Period Report Variables Requested
6,1,Calendar Year of Simulation[] ! When Annual Report Variables Requested
7,9,Environment,Site Outdoor Air Drybulb Temperature [C] !Monthly [Value,Min,Day,Hour,Minute,Max,Day,Hour,Minute]
8,1,Environment,Site Outdoor Air Wetbulb Temperature [C] !TimeStep
810,1,LAB - RESEARCH-SPACE FUNCTION ZN,Zone Air Temperature [C] !Hourly
811,7,LAB - RESEARCH-SPACE FUNCTION ZN,Zone Air Relative Humidity [%] !Daily [Value,Min,Hour,Minute,Max,Hour,Minute]
850,1,LIBRARY - CATALOGING-SPACE FUNCTION ZN,Zone Air Temperature [C] !Hourly
851,7,LIBRARY - CATALOGING-SPACE FUNCTION ZN,Zone Air Relative Humidity [%] !Daily [Value,Min,Hour,Minute,Max,Hour,Minute]
890,1,LIBRARY - READING-SPACE FUNCTION ZN,Zone Air Temperature [C] !Hourly
891,7,LIBRARY - READING-SPACE FUNCTION ZN,Zone Air Relative Humidity [%] !Daily [Value,Min,Hour,Minute,Max,Hour,Minute]
930,1,LIBRARY - STACKS-SPACE FUNCTION ZN,Zone Air Temperature [C] !Hourly
931,7,LIBRARY - STACKS-SPACE FUNCTION ZN,Zone Air Relative Humidity [%] !Daily [Value,Min,Hour,Minute,Max,Hour,Minute]
970,1,LOBBY - ELEVATOR-SPACE FUNCTION ZN,Zone Air Temperature [C] !Hourly
971,7,LOBBY - ELEVATOR-SPACE FUNCTION ZN,Zone Air Relative Humidity [%] !Daily [Value,Min,Hour,Minute,Max,Hour,Minute]
1010,1,LOBBY - MOTION PICTURE-SPACE FUNCTION ZN,Zone Air Temperature [C] !Hourly
1011,7,LOBBY - MOTION PICTURE-SPACE FUNCTION ZN,Zone Air Relative Humidity [%] !Daily [Value,Min,Hour,Minute,Max,Hour,Minute]
1050,1,LOBBY - OTHER-SPACE FUNCTION ZN,Zone Air Temperature [C] !Hourly
1051,7,LOBBY - OTHER-SPACE FUNCTION ZN,Zone Air Relative Humidity [%] !Daily [Value,Min,Hour,Minute,Max,Hour,Minute]
1090,1,LOBBY - PERFORMANCE ARTS-SPACE FUNCTION ZN,Zone Air Temperature [C] !Hourly
1091,7,LOBBY - PERFORMANCE ARTS-SPACE FUNCTION ZN,Zone Air Relative Humidity [%] !Daily [Value,Min,Hour,Minute,Max,Hour,Minute]
1130,1,LOUNGE/RECREATION-SPACE FUNCTION ZN,Zone Air Temperature [C] !Hourly
1131,7,LOUNGE/RECREATION-SPACE FUNCTION ZN,Zone Air Relative Humidity [%] !Daily [Value,Min,Hour,Minute,Max,Hour,Minute]
1170,1,MFG - 7.5 <= BAY H <= 15M-SPACE FUNCTION ZN,Zone Air Temperature [C] !Hourly
1171,7,MFG - 7.5 <= BAY H <= 15M-SPACE FUNCTION ZN,Zone Air Relative Humidity [%] !Daily [Value,Min,Hour,Minute,Max,Hour,Minute]
1210,1,MFG - BAY H < 7.5M-SPACE FUNCTION ZN,Zone Air Temperature [C] !Hourly
1211,7,MFG - BAY H < 7.5M-SPACE FUNCTION ZN,Zone Air Relative Humidity [%] !Daily [Value,Min,Hour,Minute,Max,Hour,Minute]
1250,1,MFG - BAY H > 15M-SPACE FUNCTION ZN,Zone Air Temperature [C] !Hourly
1251,7,MFG - BAY H > 15M-SPACE FUNCTION ZN,Zone Air Relative Humidity [%] !Daily [Value,Min,Hour,Minute,Max,Hour,Minute]
1290,1,MFG - CORR. < 2.4M-SCH-A-SPACE FUNCTION ZN,Zone Air Temperature [C] !Hourly
1291,7,MFG - CORR. < 2.4M-SCH-A-SPACE FUNCTION ZN,Zone Air Relative Humidity [%] !Daily [Value,Min,Hour,Minute,Max,Hour,Minute]
1330,1,MFG - CORR. < 2.4M-SCH-B-SPACE FUNCTION ZN,Zone Air Temperature [C] !Hourly
1331,7,MFG - CORR. < 2.4M-SCH-B-SPACE FUNCTION ZN,Zone Air Relative Humidity [%] !Daily [Value,Min,Hour,Minute,Max,Hour,Minute]
1370,1,MFG - CORR. < 2.4M-SCH-C-SPACE FUNCTION ZN,Zone Air Temperature [C] !Hourly
1371,7,MFG - CORR. < 2.4M-SCH-C-SPACE FUNCTION ZN,Zone Air Relative Humidity [%] !Daily [Value,Min,Hour,Minute,Max,Hour,Minute]
1410,1,MFG - CORR. < 2.4M-SCH-D-SPACE FUNCTION ZN,Zone Air Temperature [C] !Hourly
1411,7,MFG - CORR. < 2.4M-SCH-D-SPACE FUNCTION ZN,Zone Air Relative Humidity [%] !Daily [Value,Min,Hour,Minute,Max,Hour,Minute]
1450,1,MFG - CORR. < 2.4M-SCH-E-SPACE FUNCTION ZN,Zone Air Temperature [C] !Hourly
1451,7,MFG - CORR. < 2.4M-SCH-E-SPACE FUNCTION ZN,Zone Air Relative Humidity [%] !Daily [Value,Min,Hour,Minute,Max,Hour,Minute]
1490,1,MFG - CORR. < 2.4M-SCH-F-SPACE FUNCTION ZN,Zone Air Temperature [C] !Hourly
1491,7,MFG - CORR. < 2.4M-SCH-F-SPACE FUNCTION ZN,Zone Air Relative Humidity [%] !Daily [Value,Min,Hour,Minute,Max,Hour,Minute]
1530,1,MFG - CORR. < 2.4M-SCH-G-SPACE FUNCTION ZN,Zone Air Temperature [C] !Hourly
1531,7,MFG - CORR. < 2.4M-SCH-G-SPACE FUNCTION ZN,Zone Air Relative Humidity [%] !Daily [Value,Min,Hour,Minute,Max,Hour,Minute]
1570,1,MFG - CORR. < 2.4M-SCH-H-SPACE FUNCTION ZN,Zone Air Temperature [C] !Hourly
1571,7,MFG - CORR. < 2.4M-SCH-H-SPACE FUNCTION ZN,Zone Air Relative Humidity [%] !Daily [Value,Min,Hour,Minute,Max,Hour,Minute]
10,1,Electricity:Facility [J] !TimeStep
1721,1,DistrictCooling:Facility [J] !TimeStep
1684,1,DistrictHeating:Facility [J] !TimeStep
End of Data Dictionary
1,FORT MCMURRAY AP ANN CLG .4% CONDNS DB=>MWB,  56.65,-111.22,  -7.00, 369.10
2,1, 7,21, 0, 1, 0.00,10.00,SummerDesignDay
8,14.218136923962174
10,47374105.70912159
1684,0.0
1721,2959434.0788046314
2,1, 7,21, 0, 1,10.00,20.00,SummerDesignDay
8,14.171982153293495
10,47374105.70912159
1684,0.0
1721,2695994.6868225715
2,1, 7,21, 0, 1,20.00,30.00,SummerDesignDay
8,14.125744780286427
10,47374105.70912159
1684,0.0
1721,2445558.827455745
2,1, 7,21, 0, 1,30.00,40.00,SummerDesignDay
8,14.079436086331978
10,47374105.70912159
1684,0.0
1721,2194311.5498972928
2,1, 7,21, 0, 1,40.00,50.00,SummerDesignDay
8,14.033050387896898
10,47374105.70912159
1684,0.0
1721,1942795.4489455659
2,1, 7,21, 0, 1,50.00,60.00,SummerDesignDay
8,13.986581233564835
10,47374105.70912159
1684,0.0
1721,1690729.3437994128
2,1, 7,21, 0, 1, 0.00,60.00,SummerDesignDay
810,21.72555787891923
850,22.433026537288386
890,22.241876037970149
930,22.98135535593681
970,21.42138304540322
1010,21.323372125178783
1050,21.77164613938883
1090,21.037140654968469
1130,23.99999999999999
1170,23.095697408844314
1210,23.332533273526967
1250,23.565989357608485
1290,22.77048050312489
1330,22.6870104863508
1370,21.862505150203537
1410,22.730163890548096
1450,22.18111737758541
1490,23.538621358051388
1530,23.45915446034702
1570,23.645371039484556
2,1, 7,21, 0, 2, 0.00,10.00,SummerDesignDay
8,13.95555882260429
10,37342189.20520523
1684,0.0
1721,0.0
2,1, 7,21, 0, 2,10.00,20.00,SummerDesignDay
8,13.924507755336454
10,37342189.20520523
1684,0.0
1721,0.0
2,1, 7,21, 0, 2,20.00,30.00,SummerDesignDay
8,13.893416042989206
10,37342189.20520523
1684,0.0
1721,0.0
2,1, 7,21, 0, 2,30.00,40.00,SummerDesignDay
8,13.862289589689029
10,37342189.20520523
1684,0.0
1721,0.0
2,1, 7,21, 0, 2,40.00,50.00,SummerDesignDay
8,13.831134407608739
10,37342189.20520523
1684,0.0
1721,0.0
2,1, 7,21, 0, 2,50.00,60.00,SummerDesignDay
8,13.799938415548118
10,37342189.20520523
1684,0.0
1721,0.0
2,1, 7,21, 0, 2, 0.00,60.00,SummerDesignDay
810,21.224338868066327
850,22.004063472399513
890,21.778472885186205
930,22.4850335463878
970,20.963427118701195
1010,20.86913902780628
1050,21.296513435877256
1090,20.594054910250568
1130,23.64741480642191
1170,22.812221833676508
1210,23.055466636485364
1250,23.225960465733335
1290,22.49319930633048
1330,22.2657778807281
1370,21.36819559505402
1410,22.48102918722475
1450,21.90251100220341
1490,23.161036321510925
1530,23.003275319209988
1570,23.36646467387177
2,1, 7,21, 0, 3, 0.00,10.00,SummerDesignDay
8,13.776521671948676
10,29785252.10077894
1684,0.0
1721,0.0
2,1, 7,21, 0, 3,10.00,20.00,SummerDesignDay
8,13.753085235778466
10,29785252.10077894
1684,0.0
1721,0.0
2,1, 7,21, 0, 3,20.00,30.00,SummerDesignDay
8,13.729636002354969
10,29785252.10077894
1684,0.0
1721,0.0
2,1, 7,21, 0, 3,30.00,40.00,SummerDesignDay
8,13.706147375533054
10,29785252.10077894
1684,0.0
1721,0.0
2,1, 7,21, 0, 3,40.00,50.00,SummerDesignDay
8,13.682651961920304
10,29785252.10077894
1684,0.0
1721,0.0
2,1, 7,21, 0, 3,50.00,60.00,SummerDesignDay
8,13.659136670643687
10,29785252.10077894
1684,0.0
1721,0.0
2,1, 7,21, 0, 3, 0.00,60.00,SummerDesignDay
810,20.832922209532656
850,21.64182197369574
890,21.387478014724605
930,22.06175071930018
970,20.600805564577177
1010,20.510813252720096
1050,20.915127414653559
1090,20.24812543121952
1130,22.973202076651263
1170,22.57861268604745
1210,22.822503527336015
1250,22.93643582476643
1290,22.26302315935158
1330,21.835474829463356
1370,20.960097527971319
1410,22.277195526422067
1450,21.67671592395669
1490,22.874509524299829
1530,22.681773257442925
1570,23.13322121795333
2,1, 7,21, 0, 4, 0.00,10.00,SummerDesignDay
8,13.63560137410855
10,29166507.25090643
1684,0.0
1721,0.0
2,1, 7,21, 0, 4,10.00,20.00,SummerDesignDay
8,13.612040802606578
10,29166507.25090643
1684,0.0
1721,0.0
2,1, 7,21, 0, 4,20.00,30.00,SummerDesignDay
8,13.58846620506876
10,29166507.25090643
1684,0.0
1721,0.0
2,1, 7,21, 0, 4,30.00,40.00,SummerDesignDay
8,13.56487178447336
10,29166507.25090643
1684,0.0
1721,0.0
2,1, 7,21, 0, 4,40.00,50.00,SummerDesignDay
8,13.541257354069103
10,29166507.25090643
1684,0.0
1721,0.0
2,1, 7,21, 0, 4,50.00,60.00,SummerDesignDay
8,13.517617463812285
10,29166507.25090643
1684,0.0
1721,0.0
2,1, 7,21, 0, 4, 0.00,60.00,SummerDesignDay
810,20.49293016777813
850,21.317405300913007
890,21.03799095866748
930,21.681388192569285
970,20.27368490497658
1010,20.187552474473134
1050,20.569071442819089
1090,19.93936759561808
1130,22.61402298798831
1170,22.365376912835399
1210,22.597720566129455
1250,22.66834415507815
1290,22.049574390460664
1330,21.56735481249524
1370,20.598789195425103
1410,22.08462052948916
1450,21.472936019926498
1490,22.58251053920669
1530,22.410145693247264
1570,22.9158909320911
2,1, 7,21, 0, 5, 0.00,10.00,SummerDesignDay
8,13.50185415824011
10,29166507.25090643
1684,0.0
1721,0.0
2,1, 7,21, 0, 5,10.00,20.00,SummerDesignDay
8,13.486076034032447
10,29166507.25090643
1684,0.0
1721,0.0
2,1, 7,21, 0, 5,20.00,30.00,SummerDesignDay
8,13.470289340350983
10,29166507.25090643
1684,0.0
1721,0.0
2,1, 7,21, 0, 5,30.00,40.00,SummerDesignDay
8,13.454493322631063
10,29166507.25090643
1684,0.0
1721,0.0
2,1, 7,21, 0, 5,40.00,50.00,SummerDesignDay
8,13.438688835118548
10,29166507.25090643
1684,0.0
1721,0.0
2,1, 7,21, 0, 5,50.00,60.00,SummerDesignDay
8,13.422888173889437
10,29166507.25090643
1684,0.0
1721,0.0
2,1, 7,21, 0, 5, 0.00,60.00,SummerDesignDay
810,20.233166968474433
850,21.085007354892956
890,20.90425036337407
930,21.39612263018041
970,20.062393145424339
1010,19.944110454427844
1050,20.258653090393954
1090,19.664543609209415
1130,22.406518478492854
1170,22.170657434076177
1210,22.441672702238948
1250,22.415252494274794
1290,21.853269878836618
1330,21.370896113050468
1370,20.531430006838609
1410,21.89955230142233
1450,21.284640213846286
1490,22.326494020161588
1530,22.161043277321139
1570,22.81207056631007
2,1, 7,21, 0, 6, 0.00,10.00,SummerDesignDay
8,13.438688835118548
10,29166507.25090643
1684,0.0
1721,0.0
2,1, 7,21, 0, 6,10.00,20.00,SummerDesignDay
8,13.454493322631063
10,29166507.25090643
1684,0.0
1721,0.0
2,1, 7,21, 0, 6,20.00,30.00,SummerDesignDay
8,13.470289340350983
10,29166507.25090643
1684,0.0
1721,0.0
2,1, 7,21, 0, 6,30.00,40.00,SummerDesignDay
8,13.486076034032447
10,29166507.25090643
1684,0.0
1721,0.0
2,1, 7,21, 0, 6,40.00,50.00,SummerDesignDay
8,13.50185415824011
10,29166507.25090643
1684,0.0
1721,0.0
2,1, 7,21, 0, 6,50.00,60.00,SummerDesignDay
8,13.517617463812285
10,29166507.25090643
1684,0.0
1721,0.0
2,1, 7,21, 0, 6, 0.00,60.00,SummerDesignDay
810,20.262652346980795
850,21.165410396707398
890,21.210934085624879
930,21.419187785793086
970,20.24342460800428
1010,19.885878631525907
1050,20.11603114598334
1090,19.549830748232723
1130,22.27576659278894
1170,22.065176940902018
1210,22.41090638808981
1250,22.24699494585394
1290,21.749243990038207
1330,21.2570881758108
1370,21.46115308513407
1410,21.7913959062754
1450,21.173637699691495
1490,22.169419581303626
1530,22.010938512331195
1570,23.12246780005597
2,1, 7,21, 0, 7, 0.00,10.00,SummerDesignDay
8,13.572736920571789
10,31022741.800523968
1684,0.0
1721,0.0
2,1, 7,21, 0, 7,10.00,20.00,SummerDesignDay
8,13.627748229152554
10,31022741.800523968
1684,0.0
1721,0.0
2,1, 7,21, 0, 7,20.00,30.00,SummerDesignDay
8,13.682651961920304
10,31022741.800523968
1684,0.0
1721,0.0
2,1, 7,21, 0, 7,30.00,40.00,SummerDesignDay
8,13.737448093244995
10,31022741.800523968
1684,0.0
1721,0.0
2,1, 7,21, 0, 7,40.00,50.00,SummerDesignDay
8,13.792137011831216
10,31022741.800523968
1684,0.0
1721,0.0
2,1, 7,21, 0, 7,50.00,60.00,SummerDesignDay
8,13.846719282840333
10,31022741.800523968
1684,0.0
1721,0.0
2,1, 7,21, 0, 7, 0.00,60.00,SummerDesignDay
810,20.70904776925141
850,21.62106926055172
890,21.527163226693078
930,21.803338821995639
970,20.72589459191754
1010,20.04465280162938
1050,20.278306390203438
1090,19.744835750948828
1130,22.285979944145635
1170,22.148804466288597
1210,22.398991965172696
1250,22.25118259546352
1290,21.807302280467679
1330,21.309948788329039
1370,22.76931625822877
1410,21.83841750686815
1450,21.226926560035435
1490,22.203661434025468
1530,22.102121630620599
1570,23.5946438148822
2,1, 7,21, 0, 8, 0.00,10.00,SummerDesignDay
8,13.978831900527043
10,61313114.70180364
1684,21164810.57361093
1721,0.0
2,1, 7,21, 0, 8,10.00,20.00,SummerDesignDay
8,14.110321014287419
10,61313114.70180364
1684,0.0
1721,1165710.4669072773
2,1, 7,21, 0, 8,20.00,30.00,SummerDesignDay
8,14.241191509616986
10,61313114.70180364
1684,0.0
1721,11826456.10179272
2,1, 7,21, 0, 8,30.00,40.00,SummerDesignDay
8,14.371447531304272
10,61313114.70180364
1684,0.0
1721,12738283.897103768
2,1, 7,21, 0, 8,40.00,50.00,SummerDesignDay
8,14.501093766564925
10,61313114.70180364
1684,0.0
1721,16373368.607442804
2,1, 7,21, 0, 8,50.00,60.00,SummerDesignDay
8,14.630134792273804
10,61313114.70180364
1684,0.0
1721,20212569.272573268
2,1, 7,21, 0, 8, 0.00,60.00,SummerDesignDay
810,22.73970157816551
850,22.656320602399906
890,22.416998850478565
930,22.760526536272314
970,21.629318228952159
1010,20.72372732412252
1050,20.944759406663296
1090,20.461060701422438
1130,22.510225125191018
1170,22.87256257511524
1210,22.982521288250969
1250,22.828088534964498
1290,22.252399233861835
1330,21.630927700200194
1370,23.904094782500029
1410,22.13428836043275
1450,21.546092521388159
1490,22.528376719407349
1530,22.519579994115657
1570,23.976057657196706
2,1, 7,21, 0, 9, 0.00,10.00,SummerDesignDay
8,14.773641492809972
10,185611455.21056143
1684,39127634.697478737
1721,46957812.1545656
2,1, 7,21, 0, 9,10.00,20.00,SummerDesignDay
8,14.91640948124148
10,185611455.21056143
1684,1099841.3246434725
1721,84386931.4759741
2,1, 7,21, 0, 9,20.00,30.00,SummerDesignDay
8,15.05843890714102
10,185611455.21056143
1684,0.0
1721,137308354.33998994
2,1, 7,21, 0, 9,30.00,40.00,SummerDesignDay
8,15.199735893563798
10,185611455.21056143
1684,0.0
1721,151899431.72145675
2,1, 7,21, 0, 9,40.00,50.00,SummerDesignDay
8,15.340306256439395
10,185611455.21056143
1684,0.0
1721,164720534.97325907
2,1, 7,21, 0, 9,50.00,60.00,SummerDesignDay
8,15.48015101768072
10,185611455.21056143
1684,0.0
1721,182284016.38761635
2,1, 7,21, 0, 9, 0.00,60.00,SummerDesignDay
810,23.97866951656835
850,23.9230760520701
890,23.834824252492024
930,23.96482177784667
970,23.11586334498538
1010,22.345453605791609
1050,22.517266373976218
1090,22.47603800506906
1130,22.993501824942315
1170,23.930537196177185
1210,23.932462635000787
1250,23.89081446327511
1290,23.073689552825657
1330,22.264590447903925
1370,23.999999999976109
1410,22.80385924946879
1450,22.41719926279644
1490,23.12669802018768
1530,23.191096757168553
1570,23.999999999999674
2,1, 7,21, 0,10, 0.00,10.00,SummerDesignDay
8,15.60467292907716
10,254120385.03489764
1684,0.0
1721,225036152.5497679
2,1, 7,21, 0,10,10.00,20.00,SummerDesignDay
8,15.72862731650033
10,254120385.03489764
1684,0.0
1721,245752958.29561586
2,1, 7,21, 0,10,20.00,30.00,SummerDesignDay
8,15.852017409284228
10,254120385.03489764
1684,0.0
1721,273315903.46854045
2,1, 7,21, 0,10,30.00,40.00,SummerDesignDay
8,15.974848118364367
10,254120385.03489764
1684,0.0
1721,303696203.87770178
2,1, 7,21, 0,10,40.00,50.00,SummerDesignDay
8,16.097123145563505
10,254120385.03489764
1684,0.0
1721,336199400.1394801
2,1, 7,21, 0,10,50.00,60.00,SummerDesignDay
8,16.218846351168599
10,254120385.03489764
1684,0.0
1721,360096580.19264546
2,1, 7,21, 0,10, 0.00,60.00,SummerDesignDay
810,23.99999999982424
850,23.99999999995617
890,23.99999999992382
930,23.999999999995877
970,23.989587878363538
1010,23.670096938285668
1050,23.82456939407639
1090,23.862206396778548
1130,23.871603224633096
1170,23.99999999983392
1210,23.999999999823176
1250,23.99999999963552
1290,23.911326391779416
1330,23.29367094535678
1370,24.00000000000003
1410,23.804751899033467
1450,23.464227478269789
1490,23.83033476599557
1530,23.86868302669728
1570,24.0
2,1, 7,21, 0,11, 0.00,10.00,SummerDesignDay
8,16.325793027093189
10,259136343.28685583
1684,0.0
1721,406749080.32036766
2,1, 7,21, 0,11,10.00,20.00,SummerDesignDay
8,16.432322158488288
10,259136343.28685583
1684,0.0
1721,436480891.1042619
2,1, 7,21, 0,11,20.00,30.00,SummerDesignDay
8,16.538424180249178
10,259136343.28685583
1684,0.0
1721,460412032.70904627
2,1, 7,21, 0,11,30.00,40.00,SummerDesignDay
8,16.644108396469087
10,259136343.28685583
1684,0.0
1721,487098322.8118434
2,1, 7,21, 0,11,40.00,50.00,SummerDesignDay
8,16.749376736593655
10,259136343.28685583
1684,0.0
1721,512884508.43174597
2,1, 7,21, 0,11,50.00,60.00,SummerDesignDay
8,16.854232613237156
10,259136343.28685583
1684,0.0
1721,538379527.3001868
2,1, 7,21, 0,11, 0.00,60.00,SummerDesignDay
810,23.99999999999992
850,23.999999999999998
890,24.00000000000006
930,23.999999999999984
970,23.99999995548509
1010,23.999827789901678
1050,23.999994278904905
1090,23.99999819156425
1130,23.999999997479205
1170,24.00000000000003
1210,24.000000000000019
1250,23.99999999999999
1290,23.999999996300557
1330,23.996387335336139
1370,24.000000000000019
1410,23.999999019067919
1450,23.999633623590865
1490,23.999995318677365
1530,23.999999198410945
1570,23.999999999999998
2,1, 7,21, 0,12, 0.00,10.00,SummerDesignDay
8,16.92390823520069
10,262296066.9891964
1684,0.0
1721,560033168.6432554
2,1, 7,21, 0,12,10.00,20.00,SummerDesignDay
8,16.99340178950456
10,262296066.9891964
1684,0.0
1721,577864494.5435804
2,1, 7,21, 0,12,20.00,30.00,SummerDesignDay
8,17.06272006743463
10,262296066.9891964
1684,0.0
1721,595358245.6858969
2,1, 7,21, 0,12,30.00,40.00,SummerDesignDay
8,17.131853229172639
10,262296066.9891964
1684,0.0
1721,612814945.5309162
2,1, 7,21, 0,12,40.00,50.00,SummerDesignDay
8,17.200807172194087
10,262296066.9891964
1684,0.0
1721,630191971.2868798
2,1, 7,21, 0,12,50.00,60.00,SummerDesignDay
8,17.269582116758607
10,262296066.9891964
1684,0.0
1721,647489606.5048179
2,1, 7,21, 0,12, 0.00,60.00,SummerDesignDay
810,24.000000000000058
850,24.0
890,24.00000000000004
930,24.0
970,23.99999999999471
1010,23.999999972254103
1050,23.999999999174553
1090,23.999999999693345
1130,24.00000000000001
1170,24.000000000000019
1210,24.00000000000003
1250,24.0
1290,24.0
1330,23.99999999800094
1370,24.000000000000015
1410,23.999999999999475
1450,23.99999999979528
1490,23.999999999997916
1530,23.999999999999728
1570,23.999999999999998
2,1, 7,21, 0,13, 0.00,10.00,SummerDesignDay
8,17.32447360221357
10,261677322.1393239
1684,0.0
1721,668304789.5830094
2,1, 7,21, 0,13,10.00,20.00,SummerDesignDay
8,17.379251291230806
10,261677322.1393239
1684,0.0
1721,682131582.0455725
2,1, 7,21, 0,13,20.00,30.00,SummerDesignDay
8,17.433921312061729
10,261677322.1393239
1684,0.0
1721,695199129.1868216
2,1, 7,21, 0,13,30.00,40.00,SummerDesignDay
8,17.488473222557489
10,261677322.1393239
1684,0.0
1721,707752951.6055569
2,1, 7,21, 0,13,40.00,50.00,SummerDesignDay
8,17.542913447755134
10,261677322.1393239
1684,0.0
1721,720069400.8357388
2,1, 7,21, 0,13,50.00,60.00,SummerDesignDay
8,17.59724609886134
10,261677322.1393239
1684,0.0
1721,731697670.3886898
2,1, 7,21, 0,13, 0.00,60.00,SummerDesignDay
810,23.999999999999984
850,24.000000000000047
890,24.00000000000004
930,24.000000000000069
970,23.999999999999998
1010,23.99999999999591
1050,23.99999999999991
1090,24.0
1130,24.000000000000015
1170,23.999999999999984
1210,24.00000000000004
1250,23.999999999999987
1290,24.00000000000001
1330,24.0
1370,24.000000000000055
1410,24.0
1450,24.000000000000005
1490,24.0
1530,23.99999999999999
1570,23.999999999999987
2,1, 7,21, 0,14, 0.00,10.00,SummerDesignDay
8,17.6311450462694
10,261677322.1393239
1684,0.0
1721,738628504.999068
2,1, 7,21, 0,14,10.00,20.00,SummerDesignDay
8,17.665000449016245
10,261677322.1393239
1684,0.0
1721,746012378.7385177
2,1, 7,21, 0,14,20.00,30.00,SummerDesignDay
8,17.698812743128934
10,261677322.1393239
1684,0.0
1721,753246239.2123813
2,1, 7,21, 0,14,30.00,40.00,SummerDesignDay
8,17.732582050940107
10,261677322.1393239
1684,0.0
1721,760354602.7988162
2,1, 7,21, 0,14,40.00,50.00,SummerDesignDay
8,17.766307345121004
10,261677322.1393239
1684,0.0
1721,767407760.0184977
2,1, 7,21, 0,14,50.00,60.00,SummerDesignDay
8,17.79999023167558
10,261677322.1393239
1684,0.0
1721,774378149.5922076
2,1, 7,21, 0,14, 0.00,60.00,SummerDesignDay
810,24.000000000000026
850,24.00000000000003
890,24.000000000000058
930,24.00000000000003
970,24.000000000000019
1010,24.00000000000001
1050,23.999999999999987
1090,23.999999999999976
1130,24.00000000000001
1170,23.99999999999997
1210,24.00000000000003
1250,24.00000000000003
1290,23.999999999999987
1330,24.000000000000005
1370,24.000000000000033
1410,24.00000000000001
1450,24.0
1490,24.000000000000015
1530,24.00000000000001
1570,24.000000000000026
2,1, 7,21, 0,15, 0.00,10.00,SummerDesignDay
8,17.79999023167558
10,261677322.1393239
1684,0.0
1721,778242531.8574286
2,1, 7,21, 0,15,10.00,20.00,SummerDesignDay
8,17.79999023167558
10,261677322.1393239
1684,0.0
1721,779860764.7215608
2,1, 7,21, 0,15,20.00,30.00,SummerDesignDay
8,17.79999023167558
10,261677322.1393239
1684,0.0
1721,781345573.149121
2,1, 7,21, 0,15,30.00,40.00,SummerDesignDay
8,17.79999023167558
10,261677322.1393239
1684,0.0
1721,782630121.7448479
2,1, 7,21, 0,15,40.00,50.00,SummerDesignDay
8,17.79999023167558
10,261677322.1393239
1684,0.0
1721,783628300.7418956
2,1, 7,21, 0,15,50.00,60.00,SummerDesignDay
8,17.79999023167558
10,261677322.1393239
1684,0.0
1721,784291855.6559898
2,1, 7,21, 0,15, 0.00,60.00,SummerDesignDay
810,24.000000000000044
850,24.000000000000019
890,24.000000000000033
930,24.000000000000044
970,23.99999999999999
1010,24.0
1050,23.99999999999999
1090,24.000000000000019
1130,24.00000000000001
1170,24.000000000000044
1210,24.000000000000015
1250,24.00000000000001
1290,24.000000000000005
1330,24.0
1370,24.000000000000015
1410,24.0
1450,24.00000000000001
1490,24.000000000000015
1530,24.000000000000015
1570,24.0
2,1, 7,21, 0,16, 0.00,10.00,SummerDesignDay
8,17.759562446305357
10,261677322.1393239
1684,0.0
1721,776133449.3733479
2,1, 7,21, 0,16,10.00,20.00,SummerDesignDay
8,17.71907809634183
10,261677322.1393239
1684,0.0
1721,769412047.973057
2,1, 7,21, 0,16,20.00,30.00,SummerDesignDay
8,17.67853788661001
10,261677322.1393239
1684,0.0
1721,762264442.9007484
2,1, 7,21, 0,16,30.00,40.00,SummerDesignDay
8,17.63791796367351
10,261677322.1393239
1684,0.0
1721,754729825.9444779
2,1, 7,21, 0,16,40.00,50.00,SummerDesignDay
8,17.59724609886134
10,261677322.1393239
1684,0.0
1721,746872522.6188387
2,1, 7,21, 0,16,50.00,60.00,SummerDesignDay
8,17.55650676726033
10,261677322.1393239
1684,0.0
1721,738735081.3692175
2,1, 7,21, 0,16, 0.00,60.00,SummerDesignDay
810,23.999999999999969
850,24.000000000000026
890,24.000000000000058
930,24.000000000000069
970,23.99999999999997
1010,24.00000000000001
1050,24.000000000000055
1090,24.0
1130,24.000000000000015
1170,24.00000000000001
1210,24.000000000000033
1250,24.000000000000055
1290,24.00000000000001
1330,24.000000000000005
1370,24.000000000000047
1410,24.000000000000005
1450,24.0
1490,23.99999999999999
1530,24.000000000000015
1570,24.000000000000026
2,1, 7,21, 0,17, 0.00,10.00,SummerDesignDay
8,17.50209486331892
10,260027335.8729972
1684,0.0
1721,730640514.6506134
2,1, 7,21, 0,17,10.00,20.00,SummerDesignDay
8,17.447570789624618
10,260027335.8729972
1684,0.0
1721,719713021.0122777
2,1, 7,21, 0,17,20.00,30.00,SummerDesignDay
8,17.392929544208135
10,260027335.8729972
1684,0.0
1721,708580461.8416317
2,1, 7,21, 0,17,30.00,40.00,SummerDesignDay
8,17.33818013976614
10,260027335.8729972
1684,0.0
1721,697219419.7627193
2,1, 7,21, 0,17,40.00,50.00,SummerDesignDay
8,17.283317298559309
10,260027335.8729972
1684,0.0
1721,685325930.70828
2,1, 7,21, 0,17,50.00,60.00,SummerDesignDay
8,17.22833552437677
10,260027335.8729972
1684,0.0
1721,673227415.0791547
2,1, 7,21, 0,17, 0.00,60.00,SummerDesignDay
810,23.999999999999976
850,24.000000000000019
890,23.999999999999955
930,23.999999999999948
970,24.000000000000015
1010,24.000000000000026
1050,24.000000000000019
1090,23.999999999999969
1130,23.99999999999999
1170,24.000000000000033
1210,24.000000000000044
1250,24.000000000000026
1290,24.00000000000001
1330,24.0
1370,24.000000000000015
1410,24.0
1450,24.0
1490,23.99999999999999
1530,24.000000000000015
1570,23.999999999999998
2,1, 7,21, 0,18, 0.00,10.00,SummerDesignDay
8,17.159453019160176
10,249598672.66832704
1684,0.0
1721,647497684.4276216
2,1, 7,21, 0,18,10.00,20.00,SummerDesignDay
8,17.090391773337136
10,249598672.66832704
1684,0.0
1721,630842329.4971097
2,1, 7,21, 0,18,20.00,30.00,SummerDesignDay
8,17.021151077964786
10,249598672.66832704
1684,0.0
1721,614455777.5817294
2,1, 7,21, 0,18,30.00,40.00,SummerDesignDay
8,16.951729380464653
10,249598672.66832704
1684,0.0
1721,598163074.5510663
2,1, 7,21, 0,18,40.00,50.00,SummerDesignDay
8,16.882126503829249
10,249598672.66832704
1684,0.0
1721,581886363.2021214
2,1, 7,21, 0,18,50.00,60.00,SummerDesignDay
8,16.812341807494034
10,249598672.66832704
1684,0.0
1721,565604471.4529591
2,1, 7,21, 0,18, 0.00,60.00,SummerDesignDay
810,23.999999999999984
850,24.00000000000003
890,24.00000000000001
930,24.00000000000007
970,24.0
1010,23.999999999999998
1050,24.000000000000047
1090,24.00000000000003
1130,24.000000000000005
1170,24.000000000000015
1210,24.000000000000019
1250,24.0
1290,23.999999999999987
1330,24.00000000000001
1370,24.000000000000044
1410,24.0
1450,23.999999999999998
1490,24.00000000000001
1530,24.000000000000019
1570,23.99999999999999
2,1, 7,21, 0,19, 0.00,10.00,SummerDesignDay
8,16.707321072823203
10,199169092.3797003
1684,0.0
1721,504292861.0160385
2,1, 7,21, 0,19,10.00,20.00,SummerDesignDay
8,16.601881826644556
10,199169092.3797003
1684,0.0
1721,478367347.969882
2,1, 7,21, 0,19,20.00,30.00,SummerDesignDay
8,16.496030555252849
10,199169092.3797003
1684,0.0
1721,454195150.9905306
2,1, 7,21, 0,19,30.00,40.00,SummerDesignDay
8,16.389760181474104
10,199169092.3797003
1684,0.0
1721,429981612.7027097
2,1, 7,21, 0,19,40.00,50.00,SummerDesignDay
8,16.283067654262039
10,199169092.3797003
1684,0.0
1721,405829370.9841929
2,1, 7,21, 0,19,50.00,60.00,SummerDesignDay
8,16.17595057957811
10,199169092.3797003
1684,0.0
1721,381845885.0424378
2,1, 7,21, 0,19, 0.00,60.00,SummerDesignDay
810,23.999999999999984
850,24.000000000000026
890,24.00000000000003
930,23.999999999999959
970,24.0
1010,23.999999999999998
1050,24.00000000000001
1090,24.000000000000015
1130,24.00000000000001
1170,24.00000000000001
1210,24.00000000000001
1250,24.000000000000019
1290,24.00000000000001
1330,24.0
1370,23.99999999999999
1410,24.000000000000005
1450,24.000000000000005
1490,24.000000000000015
1530,24.000000000000019
1570,24.0
2,1, 7,21, 0,20, 0.00,10.00,SummerDesignDay
8,16.097123145563505
10,145767661.81140305
1684,0.0
1721,320334774.95138409
2,1, 7,21, 0,20,10.00,20.00,SummerDesignDay
8,16.018070242471564
10,145767661.81140305
1684,0.0
1721,297394072.4447037
2,1, 7,21, 0,20,20.00,30.00,SummerDesignDay
8,15.938779752340516
10,145767661.81140305
1684,0.0
1721,277371179.62482836
2,1, 7,21, 0,20,30.00,40.00,SummerDesignDay
8,15.85926152575189
10,145767661.81140305
1684,0.0
1721,257208700.4815063
2,1, 7,21, 0,20,40.00,50.00,SummerDesignDay
8,15.779503718563929
10,145767661.81140305
1684,0.0
1721,236530595.05802457
2,1, 7,21, 0,20,50.00,60.00,SummerDesignDay
8,15.699515709672767
10,145767661.81140305
1684,0.0
1721,215577271.35645537
2,1, 7,21, 0,20, 0.00,60.00,SummerDesignDay
810,23.999999999999987
850,24.000000000000015
890,24.000000000000015
930,24.000000000000033
970,24.000000000000015
1010,24.000000000000019
1050,24.000000000000019
1090,24.000000000000019
1130,24.000000000000019
1170,24.0
1210,24.00000000000001
1250,24.0
1290,24.00000000000001
1330,24.000000000000005
1370,24.0
1410,24.00000000000001
1450,24.029543899193816
1490,23.999999999999998
1530,24.000000000000015
1570,24.0
2,1, 7,21, 0,21, 0.00,10.00,SummerDesignDay
8,15.63389147320404
10,136047742.7046117
1684,0.0
1721,191790512.73157449
2,1, 7,21, 0,21,10.00,20.00,SummerDesignDay
8,15.56810827419793
10,136047742.7046117
1684,0.0
1721,172304627.66557969
2,1, 7,21, 0,21,20.00,30.00,SummerDesignDay
8,15.502170882753524
10,136047742.7046117
1684,0.0
1721,153022418.6866255
2,1, 7,21, 0,21,30.00,40.00,SummerDesignDay
8,15.436068032613852
10,136047742.7046117
1684,0.0
1721,134254017.76948784
2,1, 7,21, 0,21,40.00,50.00,SummerDesignDay
8,15.369804371206009
10,136047742.7046117
1684,0.0
1721,119261271.77063555
2,1, 7,21, 0,21,50.00,60.00,SummerDesignDay
8,15.303384603594449
10,136047742.7046117
1684,0.0
1721,105244073.62862005
2,1, 7,21, 0,21, 0.00,60.00,SummerDesignDay
810,23.99999999999999
850,23.999999999999998
890,24.00000000000001
930,24.000000000000033
970,23.980956240427248
1010,23.950409318734385
1050,24.000000000000026
1090,23.98189621472731
1130,24.00000000000001
1170,24.000000000000015
1210,24.000000000000005
1250,24.00000000000001
1290,24.000000000000005
1330,23.984398464750496
1370,24.000000000000005
1410,24.000000000000005
1450,23.646667047219969
1490,24.00000000000001
1530,24.000000000000015
1570,24.000000000000015
2,1, 7,21, 0,22, 0.00,10.00,SummerDesignDay
8,15.236797685071274
10,64550837.74232524
1684,0.0