Program Version,EnergyPlus, Version 8.9.0-eba93e8e1b, YMD=2019.03.19 18:34
1,5,Environment Title[],Latitude[deg],Longitude[deg],Time Zone[],Elevation[m]
2,8,Day of Simulation[],Month[],Day of Month[],DST Indicator[1=yes 0=no],Hour[],StartMinute[],EndMinute[],DayType
3,5,Cumulative Day of Simulation[],Month[],Day of Month[],DST Indicator[1=yes 0=no],DayType  ! When Daily Report Variables Requested
4,2,Cumulative Days of Simulation[],Month[]  ! When Monthly Report Variables Requested
5,1,Cumulative Days of Simulation[] ! When Run Period Report Variables Requested
6,1,Calendar Year of Simulation[] ! When Annual Report Variables Requested
7,9,Environment,Site Outdoor Air Drybulb Temperature [C] !Monthly [Value,Min,Day,Hour,Minute,Max,Day,Hour,Minute]
8,1,Environment,Site Outdoor Air Wetbulb Temperature [C] !TimeStep
875,1,ATRIUM - H < 13M-SPACE FUNCTION ZN,Zone Air Temperature [C] !Hourly
876,7,ATRIUM - H < 13M-SPACE FUNCTION ZN,Zone Air Relative Humidity [%] !Daily [Value,Min,Hour,Minute,Max,Hour,Minute]
915,1,ATRIUM - H > 13M-SPACE FUNCTION ZN,Zone Air Temperature [C] !Hourly
916,7,ATRIUM - H > 13M-SPACE FUNCTION ZN,Zone Air Relative Humidity [%] !Daily [Value,Min,Hour,Minute,Max,Hour,Minute]
955,1,AUDIENCE - AUDITORIUM-SPACE FUNCTION ZN,Zone Air Temperature [C] !Hourly
956,7,AUDIENCE - AUDITORIUM-SPACE FUNCTION ZN,Zone Air Relative Humidity [%] !Daily [Value,Min,Hour,Minute,Max,Hour,Minute]
995,1,AUDIENCE - MOTION PICTURE-SPACE FUNCTION ZN,Zone Air Temperature [C] !Hourly
996,7,AUDIENCE - MOTION PICTURE-SPACE FUNCTION ZN,Zone Air Relative Humidity [%] !Daily [Value,Min,Hour,Minute,Max,Hour,Minute]
1035,1,AUDIENCE - PERFORMANCE ARTS-SPACE FUNCTION ZN,Zone Air Temperature [C] !Hourly
1036,7,AUDIENCE - PERFORMANCE ARTS-SPACE FUNCTION ZN,Zone Air Relative Humidity [%] !Daily [Value,Min,Hour,Minute,Max,Hour,Minute]
1075,1,AUTOMOTIVE - REPAIR-SPACE FUNCTION ZN,Zone Air Temperature [C] !Hourly
1076,7,AUTOMOTIVE - REPAIR-SPACE FUNCTION ZN,Zone Air Relative Humidity [%] !Daily [Value,Min,Hour,Minute,Max,Hour,Minute]
1115,1,BANK - BANKING AND OFFICES-SPACE FUNCTION ZN,Zone Air Temperature [C] !Hourly
1116,7,BANK - BANKING AND OFFICES-SPACE FUNCTION ZN,Zone Air Relative Humidity [%] !Daily [Value,Min,Hour,Minute,Max,Hour,Minute]
1155,1,CLASSROOM/LECTURE/TRAINING-SPACE FUNCTION ZN,Zone Air Temperature [C] !Hourly
1156,7,CLASSROOM/LECTURE/TRAINING-SPACE FUNCTION ZN,Zone Air Relative Humidity [%] !Daily [Value,Min,Hour,Minute,Max,Hour,Minute]
1195,1,CONF./MEET./MULTI-PURPOSE-SPACE FUNCTION ZN,Zone Air Temperature [C] !Hourly
1196,7,CONF./MEET./MULTI-PURPOSE-SPACE FUNCTION ZN,Zone Air Relative Humidity [%] !Daily [Value,Min,Hour,Minute,Max,Hour,Minute]
1235,1,CONVENTION CENTRE - AUDIENCE-SPACE FUNCTION ZN,Zone Air Temperature [C] !Hourly
1236,7,CONVENTION CENTRE - AUDIENCE-SPACE FUNCTION ZN,Zone Air Relative Humidity [%] !Daily [Value,Min,Hour,Minute,Max,Hour,Minute]
1275,1,CONVENTION CENTRE - EXHIBIT-SPACE FUNCTION ZN,Zone Air Temperature [C] !Hourly
1276,7,CONVENTION CENTRE - EXHIBIT-SPACE FUNCTION ZN,Zone Air Relative Humidity [%] !Daily [Value,Min,Hour,Minute,Max,Hour,Minute]
1315,1,CORR. < 2.4M WIDE-SCH-A-SPACE FUNCTION ZN,Zone Air Temperature [C] !Hourly
1316,7,CORR. < 2.4M WIDE-SCH-A-SPACE FUNCTION ZN,Zone Air Relative Humidity [%] !Daily [Value,Min,Hour,Minute,Max,Hour,Minute]
1355,1,WHOLEBUILDING-PARKING GARAGE ZN,Zone Air Temperature [C] !Hourly
1356,7,WHOLEBUILDING-PARKING GARAGE ZN,Zone Air Relative Humidity [%] !Daily [Value,Min,Hour,Minute,Max,Hour,Minute]
1395,1,WHOLEBUILDING-PENITENTIARY ZN,Zone Air Temperature [C] !Hourly
1396,7,WHOLEBUILDING-PENITENTIARY ZN,Zone Air Relative Humidity [%] !Daily [Value,Min,Hour,Minute,Max,Hour,Minute]
1435,1,WHOLEBUILDING-PERFORMING ARTS THEATRE ZN,Zone Air Temperature [C] !Hourly
1436,7,WHOLEBUILDING-PERFORMING ARTS THEATRE ZN,Zone Air Relative Humidity [%] !Daily [Value,Min,Hour,Minute,Max,Hour,Minute]
1475,1,WHOLEBUILDING-POLICE STATION ZN,Zone Air Temperature [C] !Hourly
1476,7,WHOLEBUILDING-POLICE STATION ZN,Zone Air Relative Humidity [%] !Daily [Value,Min,Hour,Minute,Max,Hour,Minute]
1515,1,WHOLEBUILDING-POST OFFICE ZN,Zone Air Temperature [C] !Hourly
1516,7,WHOLEBUILDING-POST OFFICE ZN,Zone Air Relative Humidity [%] !Daily [Value,Min,Hour,Minute,Max,Hour,Minute]
1555,1,WHOLEBUILDING-RELIGIOUS ZN,Zone Air Temperature [C] !Hourly
1556,7,WHOLEBUILDING-RELIGIOUS ZN,Zone Air Relative Humidity [%] !Daily [Value,Min,Hour,Minute,Max,Hour,Minute]
1595,1,WHOLEBUILDING-RETAIL ZN,Zone Air Temperature [C] !Hourly
1596,7,WHOLEBUILDING-RETAIL ZN,Zone Air Relative Humidity [%] !Daily [Value,Min,Hour,Minute,Max,Hour,Minute]
1635,1,WHOLEBUILDING-SCHOOL/UNIVERSITY ZN,Zone Air Temperature [C] !Hourly
1636,7,WHOLEBUILDING-SCHOOL/UNIVERSITY ZN,Zone Air Relative Humidity [%] !Daily [Value,Min,Hour,Minute,Max,Hour,Minute]
10,1,Electricity:Facility [J] !TimeStep
1786,1,DistrictCooling:Facility [J] !TimeStep
1749,1,DistrictHeating:Facility [J] !TimeStep
End of Data Dictionary
1,FORT MCMURRAY AP ANN CLG .4% CONDNS DB=>MWB,  56.65,-111.22,  -7.00, 369.10
2,1, 7,21, 0, 1, 0.00,10.00,SummerDesignDay
8,14.218136923962174
10,60776681.674389969
1749,0.0
1786,40051528.10211092
2,1, 7,21, 0, 1,10.00,20.00,SummerDesignDay
8,14.171982153293495
10,60776681.674389969
1749,0.0
1786,39358440.10601414
2,1, 7,21, 0, 1,20.00,30.00,SummerDesignDay
8,14.125744780286427
10,60776681.674389969
1749,0.0
1786,38784945.17116262
2,1, 7,21, 0, 1,30.00,40.00,SummerDesignDay
8,14.079436086331978
10,60776681.674389969
1749,0.0
1786,38386194.12796495
2,1, 7,21, 0, 1,40.00,50.00,SummerDesignDay
8,14.033050387896898
10,60776681.674389969
1749,0.0
1786,37999440.42252808
2,1, 7,21, 0, 1,50.00,60.00,SummerDesignDay
8,13.986581233564835
10,60776681.674389969
1749,0.0
1786,37615514.97933367
2,1, 7,21, 0, 1, 0.00,60.00,SummerDesignDay
875,23.57702216593111
915,23.903142863196668
955,20.753608506789346
995,21.597996536045288
1035,21.18281015982456
1075,22.985273139504675
1115,23.65995621713766
1155,21.458836491920068
1195,23.42859355604902
1235,21.972374678801584
1275,23.810200463285275
1315,25.156264787445115
1355,23.97871629325405
1395,23.999999999999998
1435,23.559267904533159
1475,24.000000000000019
1515,24.852324011133363
1555,24.62007390065037
1595,24.4275972951377
1635,23.228985126627653
2,1, 7,21, 0, 2, 0.00,10.00,SummerDesignDay
8,13.95555882260429
10,55056104.28430939
1749,0.0
1786,37282943.721441019
2,1, 7,21, 0, 2,10.00,20.00,SummerDesignDay
8,13.924507755336454
10,55056104.28430939
1749,0.0
1786,36944204.36451866
2,1, 7,21, 0, 2,20.00,30.00,SummerDesignDay
8,13.893416042989206
10,55056104.28430939
1749,0.0
1786,36601433.291008029
2,1, 7,21, 0, 2,30.00,40.00,SummerDesignDay
8,13.862289589689029
10,55056104.28430939
1749,0.0
1786,36256888.783965688
2,1, 7,21, 0, 2,40.00,50.00,SummerDesignDay
8,13.831134407608739
10,55056104.28430939
1749,0.0
1786,35911783.439239528
2,1, 7,21, 0, 2,50.00,60.00,SummerDesignDay
8,13.799938415548118
10,55056104.28430939
1749,0.0
1786,35566933.42717947
2,1, 7,21, 0, 2, 0.00,60.00,SummerDesignDay
875,23.258091720620276
915,23.753112772767215
955,20.30446953244682
995,21.144069542296287
1035,20.698910298607559
1075,22.702489942684666
1115,23.40218043846454
1155,20.91155513468041
1195,23.079258620235675
1235,21.488007587310205
1275,23.564623492929468
1315,24.989715417172776
1355,23.80740020188342
1395,24.00000000000003
1435,23.080675422005255
1475,24.0
1515,24.537408473290545
1555,24.250464186661664
1595,24.22292625502946
1635,22.789510614434638
2,1, 7,21, 0, 3, 0.00,10.00,SummerDesignDay
8,13.776521671948676
10,55056104.28430939
1749,0.0
1786,35249592.59960702
2,1, 7,21, 0, 3,10.00,20.00,SummerDesignDay
8,13.753085235778466
10,55056104.28430939
1749,0.0
1786,34933098.00420356
2,1, 7,21, 0, 3,20.00,30.00,SummerDesignDay
8,13.729636002354969
10,55056104.28430939
1749,0.0
1786,34617578.87209389
2,1, 7,21, 0, 3,30.00,40.00,SummerDesignDay
8,13.706147375533054
10,55056104.28430939
1749,0.0
1786,34303012.81265869
2,1, 7,21, 0, 3,40.00,50.00,SummerDesignDay
8,13.682651961920304
10,55056104.28430939
1749,0.0
1786,33989382.15538837
2,1, 7,21, 0, 3,50.00,60.00,SummerDesignDay
8,13.659136670643687
10,55056104.28430939
1749,0.0
1786,33676622.88597763
2,1, 7,21, 0, 3, 0.00,60.00,SummerDesignDay
875,22.981278225854735
915,23.629618817034893
955,19.975634083119379
995,20.797794585493038
1035,20.33368523031348
1075,22.48461012591164
1115,23.20581521470602
1155,20.521769134231339
1195,22.80109554172145
1235,21.111247600540897
1275,23.368794305939458
1315,24.850669856918999
1355,23.594904894616563
1395,24.000000000000019
1435,22.682246191299183
1475,24.000000000000015
1515,24.26805882810753
1555,23.850571471788898
1595,24.052202136204767
1635,22.449215282987983
2,1, 7,21, 0, 4, 0.00,10.00,SummerDesignDay
8,13.63560137410855
10,55056104.28430939
1749,0.0
1786,33364687.44076407
2,1, 7,21, 0, 4,10.00,20.00,SummerDesignDay
8,13.612040802606578
10,55056104.28430939
1749,0.0
1786,33053497.954078098
2,1, 7,21, 0, 4,20.00,30.00,SummerDesignDay
8,13.58846620506876
10,55056104.28430939
1749,0.0
1786,32743039.536212889
2,1, 7,21, 0, 4,30.00,40.00,SummerDesignDay
8,13.56487178447336
10,55056104.28430939
1749,0.0
1786,32433250.947012035
2,1, 7,21, 0, 4,40.00,50.00,SummerDesignDay
8,13.541257354069103
10,55056104.28430939
1749,0.0
1786,32124096.711510328
2,1, 7,21, 0, 4,50.00,60.00,SummerDesignDay
8,13.517617463812285
10,55056104.28430939
1749,0.0
1786,31815530.17345085
2,1, 7,21, 0, 4, 0.00,60.00,SummerDesignDay
875,22.720626824520079
915,23.515555277322635
955,19.68648734087212
995,20.485282692251724
1035,20.008361807293296
1075,22.28645068438523
1115,23.030839097969154
1155,20.19248292497979
1195,22.54432291831958
1235,20.770830926791527
1275,23.185629479787548
1315,24.71912127164686
1355,23.398293796918038
1395,24.000000000000019
1435,22.322915279981328
1475,24.00000000000001
1515,24.012178101722328
1555,23.614877107634827
1595,23.89246467031988
1635,22.151504895517179
2,1, 7,21, 0, 5, 0.00,10.00,SummerDesignDay
8,13.50185415824011
10,55056104.28430939
1749,0.0
1786,31534340.76572853
2,1, 7,21, 0, 5,10.00,20.00,SummerDesignDay
8,13.486076034032447
10,55056104.28430939
1749,0.0
1786,31291695.565101118
2,1, 7,21, 0, 5,20.00,30.00,SummerDesignDay
8,13.470289340350983
10,55056104.28430939
1749,0.0
1786,31042651.304289335
2,1, 7,21, 0, 5,30.00,40.00,SummerDesignDay
8,13.454493322631063
10,55056104.28430939
1749,0.0
1786,30800569.522667417
2,1, 7,21, 0, 5,40.00,50.00,SummerDesignDay
8,13.438688835118548
10,55056104.28430939
1749,0.0
1786,30566716.487520588
2,1, 7,21, 0, 5,50.00,60.00,SummerDesignDay
8,13.422888173889437
10,55056104.28430939
1749,0.0
1786,30341269.843308867
2,1, 7,21, 0, 5, 0.00,60.00,SummerDesignDay
875,22.674736341263423
915,23.40476201061374
955,19.429523437061034
995,20.28639047491849
1035,19.716242272116515
1075,22.101446209426724
1115,22.867739861601675
1155,19.95851362074521
1195,22.308924273299266
1235,20.467282354516127
1275,23.07629899780061
1315,24.597386088877387
1355,23.272591571674963
1395,24.000000000000015
1435,22.0562036528009
1475,24.000000000000033
1515,23.87442074198216
1555,23.464825876417547
1595,23.736926162395695
1635,22.158355168628789
2,1, 7,21, 0, 6, 0.00,10.00,SummerDesignDay
8,13.438688835118548
10,55056104.28430939
1749,0.0
1786,30241212.24906226
2,1, 7,21, 0, 6,10.00,20.00,SummerDesignDay
8,13.454493322631063
10,55056104.28430939
1749,0.0
1786,30142294.768725113
2,1, 7,21, 0, 6,20.00,30.00,SummerDesignDay
8,13.470289340350983
10,55056104.28430939
1749,0.0
1786,30048606.835673959
2,1, 7,21, 0, 6,30.00,40.00,SummerDesignDay
8,13.486076034032447
10,55056104.28430939
1749,0.0
1786,29962739.799250157
2,1, 7,21, 0, 6,40.00,50.00,SummerDesignDay
8,13.50185415824011
10,55056104.28430939
1749,0.0
1786,29885133.199155649
2,1, 7,21, 0, 6,50.00,60.00,SummerDesignDay
8,13.517617463812285
10,55056104.28430939
1749,0.0
1786,29816131.377941759
2,1, 7,21, 0, 6, 0.00,60.00,SummerDesignDay
875,23.104260869658615
915,23.323721751551618
955,19.333720333895206
995,20.464700653652149
1035,19.59253981816025
1075,21.996090781144429
1115,22.764053629910348
1155,20.04104822631199
1195,22.174839607063018
1235,20.33160963357872
1275,23.082775641355896
1315,24.52427955982436
1355,23.418447264791806
1395,24.000000000000019
1435,22.097830704417306
1475,24.00000000000001
1515,24.182019083126379
1555,23.442706888448624
1595,23.612789785562759
1635,23.247990107569348
2,1, 7,21, 0, 7, 0.00,10.00,SummerDesignDay
8,13.572736920571789
10,55056104.28430939
1749,0.0
1786,49443669.59324613
2,1, 7,21, 0, 7,10.00,20.00,SummerDesignDay
8,13.627748229152554
10,55056104.28430939
1749,0.0
1786,29965206.315941715
2,1, 7,21, 0, 7,20.00,30.00,SummerDesignDay
8,13.682651961920304
10,55056104.28430939
1749,0.0
1786,38425397.46983379
2,1, 7,21, 0, 7,30.00,40.00,SummerDesignDay
8,13.737448093244995
10,55056104.28430939
1749,0.0
1786,42684577.48586135
2,1, 7,21, 0, 7,40.00,50.00,SummerDesignDay
8,13.792137011831216
10,55056104.28430939
1749,0.0
1786,40262229.6736552
2,1, 7,21, 0, 7,50.00,60.00,SummerDesignDay
8,13.846719282840333
10,55056104.28430939
1749,0.0
1786,43992044.53667649
2,1, 7,21, 0, 7, 0.00,60.00,SummerDesignDay
875,23.414703910843867
915,23.31060987305465
955,19.52835882185918
995,20.875020827438097
1035,19.775638325763909
1075,22.038100312483619
1115,22.78327649903044
1155,20.50139870059046
1195,22.21039641007206
1235,20.481857531658809
1275,23.0664006778769
1315,23.94150326960904
1355,23.795625002226875
1395,23.99999999999999
1435,22.422105251008934
1475,24.0
1515,23.98991317884273
1555,23.410194128170759
1595,23.570934486311246
1635,24.519297731088725
2,1, 7,21, 0, 8, 0.00,10.00,SummerDesignDay
8,13.978831900527043
10,65659141.040089938
1749,6521341.947555143
1786,79359614.6976612
2,1, 7,21, 0, 8,10.00,20.00,SummerDesignDay
8,14.110321014287419
10,65659141.040089938
1749,0.0
1786,54426582.02325638
2,1, 7,21, 0, 8,20.00,30.00,SummerDesignDay
8,14.241191509616986
10,65659141.040089938
1749,0.0
1786,79912436.32962388
2,1, 7,21, 0, 8,30.00,40.00,SummerDesignDay
8,14.371447531304272
10,65659141.040089938
1749,0.0
1786,84435655.15031472
2,1, 7,21, 0, 8,40.00,50.00,SummerDesignDay
8,14.501093766564925
10,65659141.040089938
1749,0.0
1786,89879666.12223682
2,1, 7,21, 0, 8,50.00,60.00,SummerDesignDay
8,14.630134792273804
10,65659141.040089938
1749,0.0
1786,96831814.43571216
2,1, 7,21, 0, 8, 0.00,60.00,SummerDesignDay
875,23.934865304088736
915,23.385741155803318
955,20.40341705847032
995,21.730330741148504
1035,20.52468874303779
1075,22.33525561347878
1115,23.346242874250636
1155,21.709317576754076
1195,22.537588802039094
1235,21.150257836338189
1275,23.263730334585174
1315,23.999999999999969
1355,23.999999854162828
1395,24.000000000000005
1435,23.331947651702156
1475,24.0
1515,23.99999999999996
1555,23.591354874067738
1595,23.641557776355737
1635,23.985092220516156
2,1, 7,21, 0, 9, 0.00,10.00,SummerDesignDay
8,14.773641492809972
10,177069026.32615678
1749,42023890.89410534
1786,133420473.80674717
2,1, 7,21, 0, 9,10.00,20.00,SummerDesignDay
8,14.91640948124148
10,177069026.32615678
1749,1838207.237945897
1786,150686996.0022058
2,1, 7,21, 0, 9,20.00,30.00,SummerDesignDay
8,15.05843890714102
10,177069026.32615678
1749,0.0
1786,166296550.58604325
2,1, 7,21, 0, 9,30.00,40.00,SummerDesignDay
8,15.199735893563798
10,177069026.32615678
1749,0.0
1786,183844470.90066908
2,1, 7,21, 0, 9,40.00,50.00,SummerDesignDay
8,15.340306256439395
10,177069026.32615678
1749,0.0
1786,197102279.08942697
2,1, 7,21, 0, 9,50.00,60.00,SummerDesignDay
8,15.48015101768072
10,177069026.32615678
1749,0.0
1786,217265454.79951028
2,1, 7,21, 0, 9, 0.00,60.00,SummerDesignDay
875,23.999999999990739
915,23.809892036338469
955,22.294575585963427
995,23.323465694359827
1035,22.718789692840898
1075,23.312857836816375
1115,23.99131850703824
1155,23.667497999667803
1195,23.62287801241831
1235,22.731551071958874
1275,23.939211985745904
1315,24.00000000000001
1355,24.000000000000015
1395,24.000000000000015
1435,23.999982933480529
1475,24.00000000000001
1515,24.000000000000019
1555,24.04415197479605
1595,23.986915606203497
1635,23.999999999992086
2,1, 7,21, 0,10, 0.00,10.00,SummerDesignDay
8,15.60467292907716
10,272266484.0423143
1749,0.0
1786,298722104.1831308
2,1, 7,21, 0,10,10.00,20.00,SummerDesignDay
8,15.72862731650033
10,272266484.0423143
1749,0.0
1786,339042021.0178787
2,1, 7,21, 0,10,20.00,30.00,SummerDesignDay
8,15.852017409284228
10,272266484.0423143
1749,0.0
1786,362522365.88921228
2,1, 7,21, 0,10,30.00,40.00,SummerDesignDay
8,15.974848118364367
10,272266484.0423143
1749,0.0
1786,388330862.52136978
2,1, 7,21, 0,10,40.00,50.00,SummerDesignDay
8,16.097123145563505
10,272266484.0423143
1749,0.0
1786,417686394.8422328
2,1, 7,21, 0,10,50.00,60.00,SummerDesignDay
8,16.218846351168599
10,272266484.0423143
1749,0.0
1786,441543032.9677085
2,1, 7,21, 0,10, 0.00,60.00,SummerDesignDay
875,24.0
915,23.999999962436495
955,23.693122454159068
995,23.999309020303234
1035,23.94499058715714
1075,23.993506249021278
1115,23.999999999999799
1155,23.999999735797656
1195,23.99999456550461
1235,23.925298985111906
1275,23.999999999982184
1315,24.0
1355,24.0
1395,24.000000000000015
1435,24.000000000000015
1475,24.0
1515,24.000000000000033
1555,24.651205566537386
1595,24.000000000000005
1635,24.00000000000003
2,1, 7,21, 0,11, 0.00,10.00,SummerDesignDay
8,16.325793027093189
10,275926453.58152428
1749,0.0
1786,502910582.94372507
2,1, 7,21, 0,11,10.00,20.00,SummerDesignDay
8,16.432322158488288
10,275926453.58152428
1749,0.0
1786,525722861.23683407
2,1, 7,21, 0,11,20.00,30.00,SummerDesignDay
8,16.538424180249178
10,275926453.58152428
1749,0.0
1786,547461326.247856
2,1, 7,21, 0,11,30.00,40.00,SummerDesignDay
8,16.644108396469087
10,275926453.58152428
1749,0.0
1786,568821412.2203066
2,1, 7,21, 0,11,40.00,50.00,SummerDesignDay
8,16.749376736593655
10,275926453.58152428
1749,0.0
1786,589775404.5320625
2,1, 7,21, 0,11,50.00,60.00,SummerDesignDay
8,16.854232613237156
10,275926453.58152428
1749,0.0
1786,610427796.4952169
2,1, 7,21, 0,11, 0.00,60.00,SummerDesignDay
875,24.00000000000003
915,24.00000000000001
955,23.999902195437487
995,23.999999997100745
1035,23.99999969347891
1075,23.999999999973928
1115,23.99999999999999
1155,23.99999999999989
1195,23.999999999999955
1235,23.999999617009853
1275,23.99999999999999
1315,24.000000000000026
1355,24.0
1395,24.0
1435,24.0
1475,24.000000000000026
1515,24.0
1555,25.32603569089196
1595,24.00000000000001
1635,23.999999999999998
2,1, 7,21, 0,12, 0.00,10.00,SummerDesignDay
8,16.92390823520069
10,275926453.58152428
1749,0.0
1786,625353016.4547657
2,1, 7,21, 0,12,10.00,20.00,SummerDesignDay
8,16.99340178950456
10,275926453.58152428
1749,0.0
1786,640134918.2688004
2,1, 7,21, 0,12,20.00,30.00,SummerDesignDay
8,17.06272006743463
10,275926453.58152428
1749,0.0
1786,654847505.4522468
2,1, 7,21, 0,12,30.00,40.00,SummerDesignDay
8,17.131853229172639
10,275926453.58152428
1749,0.0
1786,668828798.1791247
2,1, 7,21, 0,12,40.00,50.00,SummerDesignDay
8,17.200807172194087
10,275926453.58152428
1749,0.0
1786,682387863.6311113
2,1, 7,21, 0,12,50.00,60.00,SummerDesignDay
8,17.269582116758607
10,275926453.58152428
1749,0.0
1786,695427445.1241636
2,1, 7,21, 0,12, 0.00,60.00,SummerDesignDay
875,24.00000000000003
915,24.00000000000001
955,23.99999998273758
995,23.99999999999966
1035,23.999999999957195
1075,23.999999999999998
1115,23.99999999999999
1155,24.00000000000003
1195,24.000000000000005
1235,23.999999999949094
1275,24.000000000000033
1315,24.00000000000001
1355,24.0
1395,24.000000000000019
1435,24.00000000000007
1475,24.000000000000058
1515,24.000000000000015
1555,26.001310374030014
1595,24.00000000000001
1635,24.00000000000003
2,1, 7,21, 0,13, 0.00,10.00,SummerDesignDay
8,17.32447360221357
10,275926453.58152428
1749,0.0
1786,723278842.4908047
2,1, 7,21, 0,13,10.00,20.00,SummerDesignDay
8,17.379251291230806
10,275926453.58152428
1749,0.0
1786,734244713.3117155
2,1, 7,21, 0,13,20.00,30.00,SummerDesignDay
8,17.433921312061729
10,275926453.58152428
1749,0.0
1786,744766258.1844047
2,1, 7,21, 0,13,30.00,40.00,SummerDesignDay
8,17.488473222557489
10,275926453.58152428
1749,0.0
1786,754736104.1317225
2,1, 7,21, 0,13,40.00,50.00,SummerDesignDay
8,17.542913447755134
10,275926453.58152428
1749,0.0
1786,764280083.855004
2,1, 7,21, 0,13,50.00,60.00,SummerDesignDay
8,17.59724609886134
10,275926453.58152428
1749,0.0
1786,773448095.6669419
2,1, 7,21, 0,13, 0.00,60.00,SummerDesignDay
875,24.00000000000004
915,24.0
955,23.99999999999679
995,23.999999999999984
1035,23.99999999999999
1075,24.00000000000003
1115,24.00000000000003
1155,24.000000000000026
1195,23.99999999999999
1235,24.00000000000003
1275,24.000000000000015
1315,23.99999999999999
1355,24.00000000000003
1395,24.000000000000019
1435,24.0
1475,24.00000000000003
1515,24.000000000000026
1555,26.547411418185875
1595,24.000000000000015
1635,24.000000000000026
2,1, 7,21, 0,14, 0.00,10.00,SummerDesignDay
8,17.6311450462694
10,275926453.58152428
1749,0.0
1786,779634510.3771442
2,1, 7,21, 0,14,10.00,20.00,SummerDesignDay
8,17.665000449016245
10,275926453.58152428
1749,0.0
1786,785614185.8523631
2,1, 7,21, 0,14,20.00,30.00,SummerDesignDay
8,17.698812743128934
10,275926453.58152428
1749,0.0
1786,791498669.2071487
2,1, 7,21, 0,14,30.00,40.00,SummerDesignDay
8,17.732582050940107
10,275926453.58152428
1749,0.0
1786,797347284.1139182
2,1, 7,21, 0,14,40.00,50.00,SummerDesignDay
8,17.766307345121004
10,275926453.58152428
1749,0.0
1786,803169679.4660373
2,1, 7,21, 0,14,50.00,60.00,SummerDesignDay
8,17.79999023167558
10,275926453.58152428
1749,0.0
1786,808971968.9282751
2,1, 7,21, 0,14, 0.00,60.00,SummerDesignDay
875,24.000000000000058
915,24.000000000000019
955,24.0
995,24.000000000000019
1035,24.00000000000001
1075,24.0
1115,24.00000000000001
1155,23.999999999999905
1195,24.000000000000026
1235,24.000000000000005
1275,24.000000000000044
1315,24.0
1355,24.0
1395,24.0
1435,24.000000000000044
1475,24.000000000000033
1515,24.000000000000015
1555,26.943930994622037
1595,24.00000000000001
1635,24.0
2,1, 7,21, 0,15, 0.00,10.00,SummerDesignDay
8,17.79999023167558
10,275926453.58152428
1749,0.0
1786,866378093.8642205
2,1, 7,21, 0,15,10.00,20.00,SummerDesignDay
8,17.79999023167558
10,275926453.58152428
1749,0.0
1786,830676800.7347863
2,1, 7,21, 0,15,20.00,30.00,SummerDesignDay
8,17.79999023167558
10,275926453.58152428
1749,0.0
1786,847519448.8221021
2,1, 7,21, 0,15,30.00,40.00,SummerDesignDay
8,17.79999023167558
10,275926453.58152428
1749,0.0
1786,830167905.2360664
2,1, 7,21, 0,15,40.00,50.00,SummerDesignDay
8,17.79999023167558
10,275926453.58152428
1749,0.0
1786,832383435.770899
2,1, 7,21, 0,15,50.00,60.00,SummerDesignDay
8,17.79999023167558
10,275926453.58152428
1749,0.0
1786,833053460.3277345
2,1, 7,21, 0,15, 0.00,60.00,SummerDesignDay
875,24.000000000000055
915,24.000000000000005
955,24.000000000000005
995,23.99999999999999
1035,24.000000000000069
1075,24.0
1115,24.0
1155,24.000000000000026
1195,24.000000000000047
1235,24.000000000000019
1275,24.000000000000005
1315,24.000000000000005
1355,24.00000000000001
1395,24.000000000000026
1435,23.999999999999987
1475,24.000000000000019
1515,24.000000000000033
1555,23.909664493935624
1595,24.00000000000001
1635,24.000000000000005
2,1, 7,21, 0,16, 0.00,10.00,SummerDesignDay
8,17.759562446305357
10,281759530.03554829
1749,0.0
1786,832854489.9609915
2,1, 7,21, 0,16,10.00,20.00,SummerDesignDay
8,17.71907809634183
10,281759530.03554829
1749,0.0
1786,827627033.9533062
2,1, 7,21, 0,16,20.00,30.00,SummerDesignDay
8,17.67853788661001
10,281759530.03554829
1749,0.0
1786,821734285.1034253
2,1, 7,21, 0,16,30.00,40.00,SummerDesignDay
8,17.63791796367351
10,281759530.03554829
1749,0.0
1786,815415547.7461817
2,1, 7,21, 0,16,40.00,50.00,SummerDesignDay
8,17.59724609886134
10,281759530.03554829
1749,0.0
1786,808750006.2169666
2,1, 7,21, 0,16,50.00,60.00,SummerDesignDay
8,17.55650676726033
10,281759530.03554829
1749,0.0
1786,801776472.9838542
2,1, 7,21, 0,16, 0.00,60.00,SummerDesignDay
875,24.00000000000004
915,24.00000000000001
955,24.000000000000005
995,24.000000000000044
1035,24.000000000000047
1075,24.000000000000019
1115,23.99999999999999
1155,24.000000000000005
1195,24.0
1235,24.0
1275,24.000000000000055
1315,24.000000000000019
1355,23.99999999999994
1395,24.00000000000003
1435,24.000000000000033
1475,24.00000000000004
1515,24.000000000000055
1555,23.99999999999883
1595,24.000000000000019
1635,24.000000000000047
2,1, 7,21, 0,17, 0.00,10.00,SummerDesignDay
8,17.50209486331892
10,274408841.2115066
1749,0.0
1786,792289249.1797325
2,1, 7,21, 0,17,10.00,20.00,SummerDesignDay
8,17.447570789624618
10,274408841.2115066
1749,0.0
1786,782571756.4058814
2,1, 7,21, 0,17,20.00,30.00,SummerDesignDay
8,17.392929544208135
10,274408841.2115066
1749,0.0
1786,773222245.7813385
2,1, 7,21, 0,17,30.00,40.00,SummerDesignDay
8,17.33818013976614
10,274408841.2115066
1749,0.0
1786,763704614.512957
2,1, 7,21, 0,17,40.00,50.00,SummerDesignDay
8,17.283317298559309
10,274408841.2115066
1749,0.0
1786,754031898.7484613
2,1, 7,21, 0,17,50.00,60.00,SummerDesignDay
8,17.22833552437677
10,274408841.2115066
1749,0.0
1786,743860743.478868
2,1, 7,21, 0,17, 0.00,60.00,SummerDesignDay
875,24.000000000000015
915,24.000000000000026
955,24.0
995,24.0
1035,23.99999999999997
1075,24.0
1115,24.000000000000019
1155,24.000000000000015
1195,24.0
1235,24.000000000000076
1275,23.999999999999987
1315,24.00000000000003
1355,24.000000000000026
1395,24.0
1435,24.0
1475,24.000000000000047
1515,24.000000000000019
1555,24.000000000000026
1595,24.00000000000004
1635,24.000000000000026
2,1, 7,21, 0,18, 0.00,10.00,SummerDesignDay
8,17.159453019160176
10,263379433.0036589
1749,0.0
1786,707122561.8964603
2,1, 7,21, 0,18,10.00,20.00,SummerDesignDay
8,17.090391773337136
10,263379433.0036589
1749,0.0
1786,692686571.4779613
2,1, 7,21, 0,18,20.00,30.00,SummerDesignDay
8,17.021151077964786
10,263379433.0036589
1749,0.0
1786,678849304.67938
2,1, 7,21, 0,18,30.00,40.00,SummerDesignDay
8,16.951729380464653
10,263379433.0036589
1749,0.0
1786,665161186.229248
2,1, 7,21, 0,18,40.00,50.00,SummerDesignDay
8,16.882126503829249
10,263379433.0036589
1749,0.0
1786,651730331.2238422
2,1, 7,21, 0,18,50.00,60.00,SummerDesignDay
8,16.812341807494034
10,263379433.0036589
1749,0.0
1786,638465095.0957749
2,1, 7,21, 0,18, 0.00,60.00,SummerDesignDay
875,24.00000000000001
915,24.000000000000019
955,24.000000000000019
995,24.00000000000003
1035,23.999999999999959
1075,23.999999999999998
1115,24.00000000000004
1155,24.000000000000047
1195,24.0
1235,23.999999999999984
1275,24.000000000000015
1315,24.000000000000026
1355,24.000000000000019
1395,24.00000000000001
1435,24.000000000000026
1475,24.000000000000019
1515,24.0
1555,24.00000000000001
1595,23.999999999999984
1635,24.00000000000003
2,1, 7,21, 0,19, 0.00,10.00,SummerDesignDay
8,16.707321072823203
10,242057110.462868
1749,0.0
1786,582615467.8219922
2,1, 7,21, 0,19,10.00,20.00,SummerDesignDay
8,16.601881826644556
10,242057110.462868
1749,0.0
1786,561207436.996087
2,1, 7,21, 0,19,20.00,30.00,SummerDesignDay
8,16.496030555252849
10,242057110.462868
1749,0.0
1786,540862408.7201156
2,1, 7,21, 0,19,30.00,40.00,SummerDesignDay
8,16.389760181474104
10,242057110.462868
1749,0.0
1786,520542126.2954279
2,1, 7,21, 0,19,40.00,50.00,SummerDesignDay
8,16.283067654262039
10,242057110.462868
1749,0.0
1786,499696996.8518387
2,1, 7,21, 0,19,50.00,60.00,SummerDesignDay
8,16.17595057957811
10,242057110.462868
1749,0.0
1786,478721528.591729
2,1, 7,21, 0,19, 0.00,60.00,SummerDesignDay
875,24.00000000000001
915,24.00000000000001
955,24.0
995,23.999999999999987
1035,24.00000000000003
1075,23.999999999999998
1115,24.00000000000001
1155,24.0
1195,24.000000000000015
1235,24.000000000000019
1275,24.00000000000004
1315,24.000000000000015
1355,24.000000000000015
1395,24.00000000000003
1435,24.000000000000044
1475,24.00000000000006
1515,24.00000000000001
1555,24.000000000000026
1595,24.000000000000019
1635,23.999999999999984
2,1, 7,21, 0,20, 0.00,10.00,SummerDesignDay
8,16.097123145563505
10,187176317.21180756
1749,0.0
1786,406682421.0701386
2,1, 7,21, 0,20,10.00,20.00,SummerDesignDay
8,16.018070242471564
10,187176317.21180756
1749,0.0
1786,389314835.31601318
2,1, 7,21, 0,20,20.00,30.00,SummerDesignDay
8,15.938779752340516
10,187176317.21180756
1749,0.0
1786,373446831.2223042
2,1, 7,21, 0,20,30.00,40.00,SummerDesignDay
8,15.85926152575189
10,187176317.21180756
1749,0.0
1786,357458668.4607125
2,1, 7,21, 0,20,40.00,50.00,SummerDesignDay
8,15.779503718563929
10,187176317.21180756
1749,0.0
1786,341256714.4135566
2,1, 7,21, 0,20,50.00,60.00,SummerDesignDay
8,15.699515709672767
10,187176317.21180756
1749,0.0
1786,324560425.4381064
2,1, 7,21, 0,20, 0.00,60.00,SummerDesignDay
875,24.000000000000005
915,24.00000000000001
955,24.000000000000015
995,24.000000000000019
1035,24.000000000000015
1075,24.512960183883789
1115,24.0
1155,23.999999999999998
1195,24.00000000000004
1235,24.0
1275,24.0
1315,24.000000000000005
1355,24.000000000000005
1395,24.00000000000001
1435,24.000000000000047
1475,23.999999999999984
1515,24.00000000000001
1555,24.00000000000003
1595,24.00000000000001
1635,23.99999999999999
2,1, 7,21, 0,21, 0.00,10.00,SummerDesignDay
8,15.63389147320404
10,171533697.3980211
1749,0.0
1786,300865228.78244867
2,1, 7,21, 0,21,10.00,20.00,SummerDesignDay
8,15.56810827419793
10,171533697.3980211
1749,0.0
1786,285931696.14280948
2,1, 7,21, 0,21,20.00,30.00,SummerDesignDay
8,15.502170882753524
10,171533697.3980211
1749,0.0
1786,271950371.94619676
2,1, 7,21, 0,21,30.00,40.00,SummerDesignDay
8,15.436068032613852
10,171533697.3980211
1749,0.0
1786,257970219.74166114
2,1, 7,21, 0,21,40.00,50.00,SummerDesignDay
8,15.369804371206009
10,171533697.3980211
1749,0.0
1786,244475997.60569809
2,1, 7,21, 0,21,50.00,60.00,SummerDesignDay
8,15.303384603594449
10,171533697.3980211
1749,0.0
1786,230408127.8608351
2,1, 7,21, 0,21, 0.00,60.00,SummerDesignDay
875,24.00000000000001
915,24.00000000000001
955,23.81865437913203
995,24.0
1035,24.000000000000019
1075,24.325253168289327
1115,24.0
1155,23.999999999999976
1195,24.00000000000003