Program Version,EnergyPlus, Version 8.9.0-eba93e8e1b, YMD=2019.03.19 18:45
1,5,Environment Title[],Latitude[deg],Longitude[deg],Time Zone[],Elevation[m]
2,8,Day of Simulation[],Month[],Day of Month[],DST Indicator[1=yes 0=no],Hour[],StartMinute[],EndMinute[],DayType
3,5,Cumulative Day of Simulation[],Month[],Day of Month[],DST Indicator[1=yes 0=no],DayType  ! When Daily Report Variables Requested
4,2,Cumulative Days of Simulation[],Month[]  ! When Monthly Report Variables Requested
5,1,Cumulative Days of Simulation[] ! When Run Period Report Variables Requested
6,1,Calendar Year of Simulation[] ! When Annual Report Variables Requested
7,9,Environment,Site Outdoor Air Drybulb Temperature [C] !Monthly [Value,Min,Day,Hour,Minute,Max,Day,Hour,Minute]
8,1,Environment,Site Outdoor Air Wetbulb Temperature [C] !TimeStep
927,1,WASHROOM-SCH-C-SPACE FUNCTION ZN,Zone Air Temperature [C] !Hourly
928,7,WASHROOM-SCH-C-SPACE FUNCTION ZN,Zone Air Relative Humidity [%] !Daily [Value,Min,Hour,Minute,Max,Hour,Minute]
967,1,WASHROOM-SCH-D-SPACE FUNCTION ZN,Zone Air Temperature [C] !Hourly
968,7,WASHROOM-SCH-D-SPACE FUNCTION ZN,Zone Air Relative Humidity [%] !Daily [Value,Min,Hour,Minute,Max,Hour,Minute]
1007,1,WASHROOM-SCH-E-SPACE FUNCTION ZN,Zone Air Temperature [C] !Hourly
1008,7,WASHROOM-SCH-E-SPACE FUNCTION ZN,Zone Air Relative Humidity [%] !Daily [Value,Min,Hour,Minute,Max,Hour,Minute]
1047,1,WASHROOM-SCH-F-SPACE FUNCTION ZN,Zone Air Temperature [C] !Hourly
1048,7,WASHROOM-SCH-F-SPACE FUNCTION ZN,Zone Air Relative Humidity [%] !Daily [Value,Min,Hour,Minute,Max,Hour,Minute]
1087,1,WASHROOM-SCH-G-SPACE FUNCTION ZN,Zone Air Temperature [C] !Hourly
1088,7,WASHROOM-SCH-G-SPACE FUNCTION ZN,Zone Air Relative Humidity [%] !Daily [Value,Min,Hour,Minute,Max,Hour,Minute]
1127,1,WASHROOM-SCH-H-SPACE FUNCTION ZN,Zone Air Temperature [C] !Hourly
1128,7,WASHROOM-SCH-H-SPACE FUNCTION ZN,Zone Air Relative Humidity [%] !Daily [Value,Min,Hour,Minute,Max,Hour,Minute]
1167,1,WASHROOM-SCH-I-SPACE FUNCTION ZN,Zone Air Temperature [C] !Hourly
1168,7,WASHROOM-SCH-I-SPACE FUNCTION ZN,Zone Air Relative Humidity [%] !Daily [Value,Min,Hour,Minute,Max,Hour,Minute]
1207,1,WHOLEBUILDING-AUTOMOTIVE FACILITY 1 ZN,Zone Air Temperature [C] !Hourly
1208,7,WHOLEBUILDING-AUTOMOTIVE FACILITY 1 ZN,Zone Air Relative Humidity [%] !Daily [Value,Min,Hour,Minute,Max,Hour,Minute]
1247,1,WHOLEBUILDING-AUTOMOTIVE FACILITY 2 ZN,Zone Air Temperature [C] !Hourly
1248,7,WHOLEBUILDING-AUTOMOTIVE FACILITY 2 ZN,Zone Air Relative Humidity [%] !Daily [Value,Min,Hour,Minute,Max,Hour,Minute]
1287,1,WHOLEBUILDING-AUTOMOTIVE FACILITY 3 ZN,Zone Air Temperature [C] !Hourly
1288,7,WHOLEBUILDING-AUTOMOTIVE FACILITY 3 ZN,Zone Air Relative Humidity [%] !Daily [Value,Min,Hour,Minute,Max,Hour,Minute]
1327,1,WHOLEBUILDING-AUTOMOTIVE FACILITY 4 ZN,Zone Air Temperature [C] !Hourly
1328,7,WHOLEBUILDING-AUTOMOTIVE FACILITY 4 ZN,Zone Air Relative Humidity [%] !Daily [Value,Min,Hour,Minute,Max,Hour,Minute]
1367,1,WHOLEBUILDING-AUTOMOTIVE FACILITY 5 ZN,Zone Air Temperature [C] !Hourly
1368,7,WHOLEBUILDING-AUTOMOTIVE FACILITY 5 ZN,Zone Air Relative Humidity [%] !Daily [Value,Min,Hour,Minute,Max,Hour,Minute]
1407,1,WHOLEBUILDING-AUTOMOTIVE FACILITY ZN,Zone Air Temperature [C] !Hourly
1408,7,WHOLEBUILDING-AUTOMOTIVE FACILITY ZN,Zone Air Relative Humidity [%] !Daily [Value,Min,Hour,Minute,Max,Hour,Minute]
1447,1,WHOLEBUILDING-SPORTS ARENA ZN,Zone Air Temperature [C] !Hourly
1448,7,WHOLEBUILDING-SPORTS ARENA ZN,Zone Air Relative Humidity [%] !Daily [Value,Min,Hour,Minute,Max,Hour,Minute]
1487,1,WHOLEBUILDING-TOWN HALL ZN,Zone Air Temperature [C] !Hourly
1488,7,WHOLEBUILDING-TOWN HALL ZN,Zone Air Relative Humidity [%] !Daily [Value,Min,Hour,Minute,Max,Hour,Minute]
1527,1,WHOLEBUILDING-TRANSPORTATION ZN,Zone Air Temperature [C] !Hourly
1528,7,WHOLEBUILDING-TRANSPORTATION ZN,Zone Air Relative Humidity [%] !Daily [Value,Min,Hour,Minute,Max,Hour,Minute]
1567,1,WHOLEBUILDING-WAREHOUSE - REFRIGERATED ZN,Zone Air Temperature [C] !Hourly
1568,7,WHOLEBUILDING-WAREHOUSE - REFRIGERATED ZN,Zone Air Relative Humidity [%] !Daily [Value,Min,Hour,Minute,Max,Hour,Minute]
1607,1,WHOLEBUILDING-WAREHOUSE ZN,Zone Air Temperature [C] !Hourly
1608,7,WHOLEBUILDING-WAREHOUSE ZN,Zone Air Relative Humidity [%] !Daily [Value,Min,Hour,Minute,Max,Hour,Minute]
1647,1,WHOLEBUILDING-WORKSHOP ZN,Zone Air Temperature [C] !Hourly
1648,7,WHOLEBUILDING-WORKSHOP ZN,Zone Air Relative Humidity [%] !Daily [Value,Min,Hour,Minute,Max,Hour,Minute]
1687,1,WORKSHOP SPACE-SPACE FUNCTION ZN,Zone Air Temperature [C] !Hourly
1688,7,WORKSHOP SPACE-SPACE FUNCTION ZN,Zone Air Relative Humidity [%] !Daily [Value,Min,Hour,Minute,Max,Hour,Minute]
10,1,Electricity:Facility [J] !TimeStep
1838,1,DistrictCooling:Facility [J] !TimeStep
1801,1,DistrictHeating:Facility [J] !TimeStep
End of Data Dictionary
1,FORT MCMURRAY AP ANN CLG .4% CONDNS DB=>MWB,  56.65,-111.22,  -7.00, 369.10
2,1, 7,21, 0, 1, 0.00,10.00,SummerDesignDay
8,14.218136923962174
10,58732948.71197162
1801,0.0
1838,53752429.23779314
2,1, 7,21, 0, 1,10.00,20.00,SummerDesignDay
8,14.171982153293495
10,58732948.71197162
1801,0.0
1838,52638489.25584658
2,1, 7,21, 0, 1,20.00,30.00,SummerDesignDay
8,14.125744780286427
10,58732948.71197162
1801,0.0
1838,51738906.0620913
2,1, 7,21, 0, 1,30.00,40.00,SummerDesignDay
8,14.079436086331978
10,58732948.71197162
1801,0.0
1838,50867103.233673248
2,1, 7,21, 0, 1,40.00,50.00,SummerDesignDay
8,14.033050387896898
10,58732948.71197162
1801,0.0
1838,49973566.52666269
2,1, 7,21, 0, 1,50.00,60.00,SummerDesignDay
8,13.986581233564835
10,58732948.71197162
1801,0.0
1838,49098195.588199358
2,1, 7,21, 0, 1, 0.00,60.00,SummerDesignDay
927,23.75907482391301
967,23.960665946611184
1007,24.551321748773764
1047,23.999999999999998
1087,24.00000000000001
1127,24.00000000000001
1167,25.384668520834155
1207,22.8523818918414
1247,24.091704531200575
1287,23.78593228085187
1327,23.5119928375767
1367,23.09283351121719
1407,22.610515106098064
1447,24.00000000000001
1487,24.521764893617058
1527,24.000000000000019
1567,23.56491996491683
1607,24.738407647338819
1647,23.571251512492237
1687,23.92024709016596
2,1, 7,21, 0, 2, 0.00,10.00,SummerDesignDay
8,13.95555882260429
10,44849626.752310778
1801,0.0
1838,35525857.58278535
2,1, 7,21, 0, 2,10.00,20.00,SummerDesignDay
8,13.924507755336454
10,44849626.752310778
1801,0.0
1838,34815716.212647248
2,1, 7,21, 0, 2,20.00,30.00,SummerDesignDay
8,13.893416042989206
10,44849626.752310778
1801,0.0
1838,34216334.36143262
2,1, 7,21, 0, 2,30.00,40.00,SummerDesignDay
8,13.862289589689029
10,44849626.752310778
1801,0.0
1838,33627834.256565209
2,1, 7,21, 0, 2,40.00,50.00,SummerDesignDay
8,13.831134407608739
10,44849626.752310778
1801,0.0
1838,33048940.47401061
2,1, 7,21, 0, 2,50.00,60.00,SummerDesignDay
8,13.799938415548118
10,44849626.752310778
1801,0.0
1838,32476027.584789087
2,1, 7,21, 0, 2, 0.00,60.00,SummerDesignDay
927,23.42168907935668
967,23.667877576005738
1007,24.15325828438257
1047,24.000000000000005
1087,24.000000000000005
1127,24.000000000000019
1167,25.47441360435316
1207,22.58541230269773
1247,23.800446014642064
1287,23.51152351336542
1327,23.266404646269579
1367,22.842951763778748
1407,22.338392465689457
1447,24.643828248366107
1487,24.3689319145812
1527,24.0
1567,23.274307261100718
1607,24.57166632915167
1647,23.29420953288609
1687,23.523612953663787
2,1, 7,21, 0, 3, 0.00,10.00,SummerDesignDay
8,13.776521671948676
10,40619661.95675619
1801,0.0
1838,31966736.86173952
2,1, 7,21, 0, 3,10.00,20.00,SummerDesignDay
8,13.753085235778466
10,40619661.95675619
1801,0.0
1838,31455221.10800094
2,1, 7,21, 0, 3,20.00,30.00,SummerDesignDay
8,13.729636002354969
10,40619661.95675619
1801,0.0
1838,30939827.8956116
2,1, 7,21, 0, 3,30.00,40.00,SummerDesignDay
8,13.706147375533054
10,40619661.95675619
1801,0.0
1838,30421169.144289346
2,1, 7,21, 0, 3,40.00,50.00,SummerDesignDay
8,13.682651961920304
10,40619661.95675619
1801,0.0
1838,29900093.084133474
2,1, 7,21, 0, 3,50.00,60.00,SummerDesignDay
8,13.659136670643687
10,40619661.95675619
1801,0.0
1838,29377373.816310925
2,1, 7,21, 0, 3, 0.00,60.00,SummerDesignDay
927,23.13536114201054
967,23.411685966784068
1007,23.81575438420808
1047,23.99999999999999
1087,24.0
1127,23.999999999999998
1167,25.167675505890107
1207,22.38011493533212
1247,23.564382630537449
1287,23.29510207527288
1327,23.07975296600412
1367,22.649066332297264
1407,22.129415795734166
1447,24.37052982816823
1487,24.22430341683444
1527,24.000000000000005
1567,23.03751146626155
1607,24.42797356551607
1647,23.078251261121154
1687,23.20398484934971
2,1, 7,21, 0, 4, 0.00,10.00,SummerDesignDay
8,13.63560137410855
10,39052175.001323949
1801,0.0
1838,28046064.740808004
2,1, 7,21, 0, 4,10.00,20.00,SummerDesignDay
8,13.612040802606578
10,39052175.001323949
1801,0.0
1838,27424364.15580652
2,1, 7,21, 0, 4,20.00,30.00,SummerDesignDay
8,13.58846620506876
10,39052175.001323949
1801,0.0
1838,26842631.566967
2,1, 7,21, 0, 4,30.00,40.00,SummerDesignDay
8,13.56487178447336
10,39052175.001323949
1801,0.0
1838,26264634.11967766
2,1, 7,21, 0, 4,40.00,50.00,SummerDesignDay
8,13.541257354069103
10,39052175.001323949
1801,0.0
1838,25689915.90476128
2,1, 7,21, 0, 4,50.00,60.00,SummerDesignDay
8,13.517617463812285
10,39052175.001323949
1801,0.0
1838,25091864.25665896
2,1, 7,21, 0, 4, 0.00,60.00,SummerDesignDay
927,22.877864620900679
967,23.174427118862185
1007,23.507508403213209
1047,24.00000000000001
1087,24.000000000000005
1127,24.0
1167,24.970551245477894
1207,22.197434572097888
1247,23.346063214053755
1287,23.09542153484422
1327,22.911598512187568
1367,22.47416751978929
1407,21.94353581701802
1447,24.07104092038212
1487,24.087648109473439
1527,24.00000000000001
1567,22.828366017148075
1607,24.291293211267658
1647,22.88423311093422
1687,22.909266122765236
2,1, 7,21, 0, 5, 0.00,10.00,SummerDesignDay
8,13.50185415824011
10,39052175.001323949
1801,0.0
1838,24553816.24186176
2,1, 7,21, 0, 5,10.00,20.00,SummerDesignDay
8,13.486076034032447
10,39052175.001323949
1801,0.0
1838,24966912.375637425
2,1, 7,21, 0, 5,20.00,30.00,SummerDesignDay
8,13.470289340350983
10,39052175.001323949
1801,0.0
1838,25276668.275824258
2,1, 7,21, 0, 5,30.00,40.00,SummerDesignDay
8,13.454493322631063
10,39052175.001323949
1801,0.0
1838,25559355.3642178
2,1, 7,21, 0, 5,40.00,50.00,SummerDesignDay
8,13.438688835118548
10,39052175.001323949
1801,0.0
1838,25789958.857945447
2,1, 7,21, 0, 5,50.00,60.00,SummerDesignDay
8,13.422888173889437
10,39052175.001323949
1801,0.0
1838,25879242.356179168
2,1, 7,21, 0, 5, 0.00,60.00,SummerDesignDay
927,22.71258721999163
967,23.243935810045003
1007,23.288503411899567
1047,24.00000000000001
1087,24.000000000000015
1127,24.000000000000005
1167,24.899010013518767
1207,22.028443004047334
1247,23.145833788404276
1287,23.012624690623338
1327,22.8177439138304
1367,22.311220003592707
1407,21.771609756647849
1447,23.95723177304393
1487,23.95490726938051
1527,24.000000000000005
1567,22.690809267413177
1607,24.165367263345105
1647,22.703758576533486
1687,22.641284559526203
2,1, 7,21, 0, 6, 0.00,10.00,SummerDesignDay
8,13.438688835118548
10,39052175.001323949
1801,0.0
1838,26110708.969836445
2,1, 7,21, 0, 6,10.00,20.00,SummerDesignDay
8,13.454493322631063
10,39052175.001323949
1801,0.0
1838,26245046.49319578
2,1, 7,21, 0, 6,20.00,30.00,SummerDesignDay
8,13.470289340350983
10,39052175.001323949
1801,0.0
1838,26316729.13805929
2,1, 7,21, 0, 6,30.00,40.00,SummerDesignDay
8,13.486076034032447
10,39052175.001323949
1801,0.0
1838,26360719.481634614
2,1, 7,21, 0, 6,40.00,50.00,SummerDesignDay
8,13.50185415824011
10,39052175.001323949
1801,0.0
1838,26394600.14767433
2,1, 7,21, 0, 6,50.00,60.00,SummerDesignDay
8,13.517617463812285
10,39052175.001323949
1801,0.0
1838,26460201.670374119
2,1, 7,21, 0, 6, 0.00,60.00,SummerDesignDay
927,22.86530966040748
967,24.480637421961999
1007,23.372899673155034
1047,24.000000000000015
1087,24.000000000000005
1127,24.000000000000005
1167,25.296213992651116
1207,21.930763704973815
1247,23.031264320244259
1287,23.348475847101708
1327,22.84769878424528
1367,22.223181052336597
1407,21.67179196616433
1447,23.974072707218867
1487,23.8522612383489
1527,24.000000000000033
1567,22.824138533575835
1607,24.09058361898282
1647,22.602513879027737
1687,22.492366099120074
2,1, 7,21, 0, 7, 0.00,10.00,SummerDesignDay
8,13.572736920571789
10,42745894.26201768
1801,0.0
1838,30836203.401913618
2,1, 7,21, 0, 7,10.00,20.00,SummerDesignDay
8,13.627748229152554
10,42745894.26201768
1801,0.0
1838,29604606.207938617
2,1, 7,21, 0, 7,20.00,30.00,SummerDesignDay
8,13.682651961920304
10,42745894.26201768
1801,0.0
1838,30622699.39131623
2,1, 7,21, 0, 7,30.00,40.00,SummerDesignDay
8,13.737448093244995
10,42745894.26201768
1801,0.0
1838,32046211.10164504
2,1, 7,21, 0, 7,40.00,50.00,SummerDesignDay
8,13.792137011831216
10,42745894.26201768
1801,0.0
1838,32683334.300743246
2,1, 7,21, 0, 7,50.00,60.00,SummerDesignDay
8,13.846719282840333
10,42745894.26201768
1801,0.0
1838,33791417.569370407
2,1, 7,21, 0, 7, 0.00,60.00,SummerDesignDay
927,23.370320237860427
967,26.145282641907558
1007,23.77874888634297
1047,24.000000000000015
1087,24.000000000000019
1127,24.0
1167,25.868926475635694
1207,21.984538837218606
1247,23.062585150530244
1287,23.838776860754849
1327,22.881470437761224
1367,22.282143461113109
1407,21.725442654377756
1447,23.95700296699864
1487,23.820689164889207
1527,24.000000000000019
1567,23.286326477247003
1607,23.99751708310018
1647,22.67371054506343
1687,22.555199900551079
2,1, 7,21, 0, 8, 0.00,10.00,SummerDesignDay
8,13.978831900527043
10,65354456.104598399
1801,0.0
1838,105537666.85960701
2,1, 7,21, 0, 8,10.00,20.00,SummerDesignDay
8,14.110321014287419
10,65354456.104598399
1801,0.0
1838,67765738.27222252
2,1, 7,21, 0, 8,20.00,30.00,SummerDesignDay
8,14.241191509616986
10,65354456.104598399
1801,0.0
1838,100953747.17388241
2,1, 7,21, 0, 8,30.00,40.00,SummerDesignDay
8,14.371447531304272
10,65354456.104598399
1801,0.0
1838,97027912.49016588
2,1, 7,21, 0, 8,40.00,50.00,SummerDesignDay
8,14.501093766564925
10,65354456.104598399
1801,0.0
1838,103841163.02292539
2,1, 7,21, 0, 8,50.00,60.00,SummerDesignDay
8,14.630134792273804
10,65354456.104598399
1801,0.0
1838,112169124.07874142
2,1, 7,21, 0, 8, 0.00,60.00,SummerDesignDay
927,23.955512495146765
967,23.945309804358513
1007,23.999826895132313
1047,24.0
1087,24.00000000000001
1127,24.0
1167,26.415877454992488
1207,22.275341254560734
1247,23.323533942471007
1287,23.999673360302539
1327,23.167593413915144
1367,22.565570424269429
1407,22.020042748680529
1447,24.14254686725998
1487,23.903988490808929
1527,24.0
1567,23.94329964121656
1607,23.99999999999974
1647,23.309900453850543
1687,23.243781710911788
2,1, 7,21, 0, 9, 0.00,10.00,SummerDesignDay
8,14.773641492809972
10,159140238.07042534
1801,0.0
1838,165934872.68268059
2,1, 7,21, 0, 9,10.00,20.00,SummerDesignDay
8,14.91640948124148
10,159140238.07042534
1801,0.0
1838,181216666.9576617
2,1, 7,21, 0, 9,20.00,30.00,SummerDesignDay
8,15.05843890714102
10,159140238.07042534
1801,0.0
1838,197392292.7842272
2,1, 7,21, 0, 9,30.00,40.00,SummerDesignDay
8,15.199735893563798
10,159140238.07042534
1801,0.0
1838,217814413.03292103
2,1, 7,21, 0, 9,40.00,50.00,SummerDesignDay
8,15.340306256439395
10,159140238.07042534
1801,0.0
1838,227302900.86312659
2,1, 7,21, 0, 9,50.00,60.00,SummerDesignDay
8,15.48015101768072
10,159140238.07042534
1801,0.0
1838,242660447.43281809
2,1, 7,21, 0, 9, 0.00,60.00,SummerDesignDay
927,23.999999999922968
967,23.999999999460106
1007,24.000000000000026
1047,24.00000000000001
1087,24.000000000000015
1127,24.0
1167,26.982285900768603
1207,23.30191691683642
1247,23.948821390056634
1287,23.999999999998808
1327,23.905063879241795
1367,23.516425778122483
1407,23.055615988064806
1447,24.002570814044814
1487,23.99995244448836
1527,24.00000000000001
1567,23.99999999994655
1607,24.000000000000005
1647,23.996583651078358
1687,23.993373687846114
2,1, 7,21, 0,10, 0.00,10.00,SummerDesignDay
8,15.60467292907716
10,221865966.0305921
1801,0.0
1838,306433726.45377168
2,1, 7,21, 0,10,10.00,20.00,SummerDesignDay
8,15.72862731650033
10,221865966.0305921
1801,0.0
1838,334000912.5934566
2,1, 7,21, 0,10,20.00,30.00,SummerDesignDay
8,15.852017409284228
10,221865966.0305921
1801,0.0
1838,350783610.98036447
2,1, 7,21, 0,10,30.00,40.00,SummerDesignDay
8,15.974848118364367
10,221865966.0305921
1801,0.0
1838,363546553.5732339
2,1, 7,21, 0,10,40.00,50.00,SummerDesignDay
8,16.097123145563505
10,221865966.0305921
1801,0.0
1838,377952101.8565283
2,1, 7,21, 0,10,50.00,60.00,SummerDesignDay
8,16.218846351168599
10,221865966.0305921
1801,0.0
1838,390992756.9886128
2,1, 7,21, 0,10, 0.00,60.00,SummerDesignDay
927,24.000000000000005
967,24.000000000000076
1007,24.000000000000058
1047,24.00000000000001
1087,24.000000000000015
1127,24.000000000000019
1167,27.397766295517785
1207,23.997468824033349
1247,23.999999999120776
1287,24.000000000000005
1327,23.99999998486577
1367,23.999954298400885
1407,23.97684742719692
1447,24.0000000000001
1487,24.00000000000001
1527,24.00000000000001
1567,24.000000000000015
1607,24.000000000000005
1647,23.99999999999683
1687,23.999999999768265
2,1, 7,21, 0,11, 0.00,10.00,SummerDesignDay
8,16.325793027093189
10,247032006.58513157
1801,0.0
1838,420733834.68562898
2,1, 7,21, 0,11,10.00,20.00,SummerDesignDay
8,16.432322158488288
10,247032006.58513157
1801,0.0
1838,432617811.75177738
2,1, 7,21, 0,11,20.00,30.00,SummerDesignDay
8,16.538424180249178
10,247032006.58513157
1801,0.0
1838,443570522.8205237
2,1, 7,21, 0,11,30.00,40.00,SummerDesignDay
8,16.644108396469087
10,247032006.58513157
1801,0.0
1838,454278614.5564459
2,1, 7,21, 0,11,40.00,50.00,SummerDesignDay
8,16.749376736593655
10,247032006.58513157
1801,0.0
1838,464749282.6424512
2,1, 7,21, 0,11,50.00,60.00,SummerDesignDay
8,16.854232613237156
10,247032006.58513157
1801,0.0
1838,475029986.08202627
2,1, 7,21, 0,11, 0.00,60.00,SummerDesignDay
927,24.000000000000019
967,23.999999999999998
1007,24.00000000000004
1047,24.000000000000015
1087,24.00000000000001
1127,23.999999999999987
1167,27.559988285708895
1207,23.99999999994273
1247,24.00000000000001
1287,23.99999999999999
1327,24.00000000000003
1367,23.999999999998967
1407,23.99999999932798
1447,24.000000000000019
1487,24.000000000000019
1527,24.000000000000005
1567,24.0
1607,24.000000000000005
1647,24.00000000000003
1687,24.0
2,1, 7,21, 0,12, 0.00,10.00,SummerDesignDay
8,16.92390823520069
10,247579502.02747656
1801,0.0
1838,485040702.5660947
2,1, 7,21, 0,12,10.00,20.00,SummerDesignDay
8,16.99340178950456
10,247579502.02747656
1801,0.0
1838,492859944.9169658
2,1, 7,21, 0,12,20.00,30.00,SummerDesignDay
8,17.06272006743463
10,247579502.02747656
1801,0.0
1838,500590894.70729759
2,1, 7,21, 0,12,30.00,40.00,SummerDesignDay
8,17.131853229172639
10,247579502.02747656
1801,0.0
1838,508248941.6458446
2,1, 7,21, 0,12,40.00,50.00,SummerDesignDay
8,17.200807172194087
10,247579502.02747656
1801,0.0
1838,515815909.5058757
2,1, 7,21, 0,12,50.00,60.00,SummerDesignDay
8,17.269582116758607
10,247579502.02747656
1801,0.0
1838,523241597.81181636
2,1, 7,21, 0,12, 0.00,60.00,SummerDesignDay
927,23.999999999999998
967,23.999999999999987
1007,24.00000000000004
1047,23.999999999999998
1087,24.000000000000019
1127,24.000000000000015
1167,27.527590346070025
1207,24.000000000000015
1247,24.00000000000003
1287,24.00000000000001
1327,24.00000000000004
1367,24.0
1407,24.0
1447,23.99999999999999
1487,24.00000000000001
1527,24.00000000000001
1567,24.000000000000047
1607,24.000000000000026
1647,24.00000000000003
1687,24.000000000000026
2,1, 7,21, 0,13, 0.00,10.00,SummerDesignDay
8,17.32447360221357
10,246012015.0720443
1801,0.0
1838,529829146.28425398
2,1, 7,21, 0,13,10.00,20.00,SummerDesignDay
8,17.379251291230806
10,246012015.0720443
1801,0.0
1838,535930085.2956682
2,1, 7,21, 0,13,20.00,30.00,SummerDesignDay
8,17.433921312061729
10,246012015.0720443
1801,0.0
1838,541841745.9926761
2,1, 7,21, 0,13,30.00,40.00,SummerDesignDay
8,17.488473222557489
10,246012015.0720443
1801,0.0
1838,547643453.0732534
2,1, 7,21, 0,13,40.00,50.00,SummerDesignDay
8,17.542913447755134
10,246012015.0720443
1801,0.0
1838,553208626.5627406
2,1, 7,21, 0,13,50.00,60.00,SummerDesignDay
8,17.59724609886134
10,246012015.0720443
1801,0.0
1838,558464727.2407547
2,1, 7,21, 0,13, 0.00,60.00,SummerDesignDay
927,24.000000000000055
967,23.99999999999999
1007,23.999999999999984
1047,24.00000000000001
1087,24.000000000000033
1127,24.000000000000005
1167,27.70946448952972
1207,23.999999999999998
1247,24.00000000000003
1287,24.000000000000005
1327,24.000000000000019
1367,24.000000000000026
1407,23.999999999999998
1447,24.00000000000001
1487,24.000000000000047
1527,24.000000000000026
1567,24.000000000000019
1607,24.000000000000026
1647,24.000000000000026
1687,24.000000000000044
2,1, 7,21, 0,14, 0.00,10.00,SummerDesignDay
8,17.6311450462694
10,246012015.0720443
1801,0.0
1838,561321029.3088554
2,1, 7,21, 0,14,10.00,20.00,SummerDesignDay
8,17.665000449016245
10,246012015.0720443
1801,0.0
1838,564711702.8466587
2,1, 7,21, 0,14,20.00,30.00,SummerDesignDay
8,17.698812743128934
10,246012015.0720443
1801,0.0
1838,568030600.9202067
2,1, 7,21, 0,14,30.00,40.00,SummerDesignDay
8,17.732582050940107
10,246012015.0720443
1801,0.0
1838,571344908.7673935
2,1, 7,21, 0,14,40.00,50.00,SummerDesignDay
8,17.766307345121004
10,246012015.0720443
1801,0.0
1838,574708762.0714947
2,1, 7,21, 0,14,50.00,60.00,SummerDesignDay
8,17.79999023167558
10,246012015.0720443
1801,0.0
1838,578098200.6434152
2,1, 7,21, 0,14, 0.00,60.00,SummerDesignDay
927,23.99999999999993
967,24.0
1007,24.000000000000047
1047,24.00000000000001
1087,24.000000000000019
1127,24.000000000000026
1167,27.961896513773725
1207,24.000000000000015
1247,24.000000000000019
1287,24.00000000000001
1327,24.00000000000001
1367,24.000000000000026
1407,24.000000000000026
1447,24.000000000000019
1487,24.0
1527,24.000000000000015
1567,24.00000000000008
1607,24.0
1647,24.000000000000015
1687,24.000000000000047
2,1, 7,21, 0,15, 0.00,10.00,SummerDesignDay
8,17.79999023167558
10,246012015.0720443
1801,0.0
1838,640326970.2296453
2,1, 7,21, 0,15,10.00,20.00,SummerDesignDay
8,17.79999023167558
10,246012015.0720443
1801,0.0
1838,589326646.2533755
2,1, 7,21, 0,15,20.00,30.00,SummerDesignDay
8,17.79999023167558
10,246012015.0720443
1801,0.0
1838,617664483.0959629
2,1, 7,21, 0,15,30.00,40.00,SummerDesignDay
8,17.79999023167558
10,246012015.0720443
1801,0.0
1838,588696629.6750741
2,1, 7,21, 0,15,40.00,50.00,SummerDesignDay
8,17.79999023167558
10,246012015.0720443
1801,0.0
1838,591487449.8430803
2,1, 7,21, 0,15,50.00,60.00,SummerDesignDay
8,17.79999023167558
10,246012015.0720443
1801,0.0
1838,591073563.980602
2,1, 7,21, 0,15, 0.00,60.00,SummerDesignDay
927,24.000000000000026
967,24.000000000000069
1007,24.000000000000026
1047,24.0
1087,24.00000000000001
1127,24.0
1167,23.83496133892078
1207,24.000000000000015
1247,24.00000000000001
1287,23.999999999999984
1327,24.000000000000019
1367,24.00000000000001
1407,24.00000000000001
1447,24.000000000000015
1487,24.000000000000015
1527,24.0
1567,23.999999999999998
1607,24.00000000000003
1647,24.000000000000005
1687,24.000000000000026
2,1, 7,21, 0,16, 0.00,10.00,SummerDesignDay
8,17.759562446305357
10,250908536.82282613
1801,0.0
1838,596625808.2699617
2,1, 7,21, 0,16,10.00,20.00,SummerDesignDay
8,17.71907809634183
10,250908536.82282613
1801,0.0
1838,593443257.6180474
2,1, 7,21, 0,16,20.00,30.00,SummerDesignDay
8,17.67853788661001
10,250908536.82282613
1801,0.0
1838,589686627.2755803
2,1, 7,21, 0,16,30.00,40.00,SummerDesignDay
8,17.63791796367351
10,250908536.82282613
1801,0.0
1838,585546939.3651582
2,1, 7,21, 0,16,40.00,50.00,SummerDesignDay
8,17.59724609886134
10,250908536.82282613
1801,0.0
1838,581056350.8853239
2,1, 7,21, 0,16,50.00,60.00,SummerDesignDay
8,17.55650676726033
10,250908536.82282613
1801,0.0
1838,576251860.356225
2,1, 7,21, 0,16, 0.00,60.00,SummerDesignDay
927,24.000000000000047
967,23.999999999999987
1007,24.0000000000001
1047,24.00000000000001
1087,24.000000000000026
1127,24.000000000000015
1167,23.99999999999996
1207,24.000000000000019
1247,24.000000000000015
1287,24.000000000000019
1327,24.000000000000055
1367,24.00000000000003
1407,24.0
1447,24.0
1487,24.000000000000019
1527,24.000000000000019
1567,24.000000000000015
1607,23.999999999999987
1647,23.999999999999976
1687,24.0
2,1, 7,21, 0,17, 0.00,10.00,SummerDesignDay
8,17.50209486331892
10,244754838.03759263
1801,0.0
1838,563440223.1378059
2,1, 7,21, 0,17,10.00,20.00,SummerDesignDay
8,17.447570789624618
10,244754838.03759263
1801,0.0
1838,556664021.501585
2,1, 7,21, 0,17,20.00,30.00,SummerDesignDay
8,17.392929544208135
10,244754838.03759263
1801,0.0
1838,550031199.0929192
2,1, 7,21, 0,17,30.00,40.00,SummerDesignDay
8,17.33818013976614
10,244754838.03759263
1801,0.0
1838,543274958.139705
2,1, 7,21, 0,17,40.00,50.00,SummerDesignDay
8,17.283317298559309
10,244754838.03759263
1801,0.0
1838,536427849.9844829
2,1, 7,21, 0,17,50.00,60.00,SummerDesignDay
8,17.22833552437677
10,244754838.03759263
1801,0.0
1838,529468142.0805495
2,1, 7,21, 0,17, 0.00,60.00,SummerDesignDay
927,24.000000000000019
967,23.999999999999984
1007,24.0
1047,24.000000000000015
1087,23.99999999999999
1127,24.000000000000033
1167,23.99999999999999
1207,24.000000000000047
1247,24.000000000000058
1287,24.00000000000004
1327,24.000000000000019
1367,24.000000000000019
1407,24.000000000000015
1447,24.000000000000019
1487,24.000000000000005
1527,24.00000000000001
1567,24.000000000000055
1607,24.0
1647,24.000000000000026
1687,24.000000000000026
2,1, 7,21, 0,18, 0.00,10.00,SummerDesignDay
8,17.159453019160176
10,232912436.5964772
1801,0.0
1838,514344575.3945406
2,1, 7,21, 0,18,10.00,20.00,SummerDesignDay
8,17.090391773337136
10,232912436.5964772
1801,0.0
1838,505432029.63428327
2,1, 7,21, 0,18,20.00,30.00,SummerDesignDay
8,17.021151077964786
10,232912436.5964772
1801,0.0
1838,496792741.38816139
2,1, 7,21, 0,18,30.00,40.00,SummerDesignDay
8,16.951729380464653
10,232912436.5964772
1801,0.0
1838,488208962.5240711
2,1, 7,21, 0,18,40.00,50.00,SummerDesignDay
8,16.882126503829249
10,232912436.5964772
1801,0.0
1838,479724411.38774809
2,1, 7,21, 0,18,50.00,60.00,SummerDesignDay
8,16.812341807494034
10,232912436.5964772
1801,0.0
1838,471294088.10946628
2,1, 7,21, 0,18, 0.00,60.00,SummerDesignDay
927,24.00000000000003
967,24.000000000000019
1007,24.000000000000019
1047,24.00000000000001
1087,24.000000000000005
1127,24.000000000000026
1167,24.000000000000019
1207,24.000000000000033
1247,24.000000000000058
1287,23.999999999999998
1327,24.00000000000004
1367,24.00000000000001
1407,24.000000000000019
1447,24.000000000000019
1487,24.0
1527,24.000000000000019
1567,24.000000000000005
1607,24.000000000000005
1647,24.000000000000026
1687,24.000000000000015
2,1, 7,21, 0,19, 0.00,10.00,SummerDesignDay
8,16.707321072823203
10,154170591.9338323
1801,0.0
1838,409198160.58392736
2,1, 7,21, 0,19,10.00,20.00,SummerDesignDay
8,16.601881826644556
10,154170591.9338323
1801,0.0
1838,394705848.05412426
2,1, 7,21, 0,19,20.00,30.00,SummerDesignDay
8,16.496030555252849
10,154170591.9338323
1801,0.0
1838,382323702.41525068
2,1, 7,21, 0,19,30.00,40.00,SummerDesignDay
8,16.389760181474104
10,154170591.9338323
1801,0.0
1838,370206795.47242638
2,1, 7,21, 0,19,40.00,50.00,SummerDesignDay
8,16.283067654262039
10,154170591.9338323
1801,0.0
1838,358474749.84051319
2,1, 7,21, 0,19,50.00,60.00,SummerDesignDay
8,16.17595057957811
10,154170591.9338323
1801,0.0
1838,346980845.7419738
2,1, 7,21, 0,19, 0.00,60.00,SummerDesignDay
927,23.999999999999987
967,24.00000000000003
1007,23.999999999999987
1047,24.00000000000001
1087,23.99999999999999
1127,24.000000000000026
1167,24.000000000000026
1207,24.00000000000001
1247,24.000000000000005
1287,24.000000000000026
1327,24.000000000000019
1367,24.00000000000001
1407,23.999999999999987
1447,24.0
1487,23.99999999999999
1527,24.000000000000026
1567,23.999999999999998
1607,24.000000000000019
1647,24.000000000000015
1687,24.000000000000097
2,1, 7,21, 0,20, 0.00,10.00,SummerDesignDay
8,16.097123145563505
10,117969330.726987
1801,0.0
1838,227642663.9625492
2,1, 7,21, 0,20,10.00,20.00,SummerDesignDay
8,16.018070242471564
10,117969330.726987
1801,0.0
1838,223179279.28719983
2,1, 7,21, 0,20,20.00,30.00,SummerDesignDay
8,15.938779752340516
10,117969330.726987
1801,0.0
1838,218664029.40899069
2,1, 7,21, 0,20,30.00,40.00,SummerDesignDay
8,15.85926152575189
10,117969330.726987
1801,0.0
1838,214045393.69732843
2,1, 7,21, 0,20,40.00,50.00,SummerDesignDay
8,15.779503718563929
10,117969330.726987
1801,0.0
1838,209434362.03559555
2,1, 7,21, 0,20,50.00,60.00,SummerDesignDay
8,15.699515709672767
10,117969330.726987
1801,0.0
1838,204660817.0956807
2,1, 7,21, 0,20, 0.00,60.00,SummerDesignDay
927,24.000000000000005
967,24.000000000000015
1007,26.328278318654538
1047,24.000000000000005
1087,24.000000000000005
1127,24.00000000000001
1167,24.00000000000001
1207,24.329541117191157
1247,25.43634944512081
1287,24.922207851262824
1327,24.72254147480409
1367,24.390353991751409
1407,24.19718350505938
1447,24.000000000000015
1487,24.0
1527,24.00000000000001
1567,24.0
1607,24.0
1647,24.000000000000005
1687,24.000000000000015
2,1, 7,21, 0,21, 0.00,10.00,SummerDesignDay
8,15.63389147320404
10,119703691.29339044
1801,0.0
1838,201260202.8459393
2,1, 7,21, 0,21,10.00,20.00,SummerDesignDay
8,15.56810827419793
10,119703691.29339044
1801,0.0
1838,196415713.91085784
2,1, 7,21, 0,21,20.00,30.00,SummerDesignDay
8,15.502170882753524
10,119703691.29339044
1801,0.0
1838,191434916.67189995
2,1, 7,21, 0,21,30.00,40.00,SummerDesignDay
8,15.436068032613852
10,119703691.29339044
1801,0.0
1838,186300110.51131744
2,1, 7,21, 0,21,40.00,50.00,SummerDesignDay
8,15.369804371206009
10,119703691.29339044
1801,0.0
1838,180977803.8570075
2,1, 7,21, 0,21,50.00,60.00,SummerDesignDay
8,15.303384603594449
10,119703691.29339044
1801,0.0
1838,175165989.54439367
2,1, 7,21, 0,21, 0.00,60.00,SummerDesignDay
927,24.000000000000019
967,24.000000000000005
1007,27.193345291581655
1047,24.00000000000003
1087,24.000000000000015
1127,24.00000000000003
1167,24.000000000000019
1207,24.21058948389477