Program Version,EnergyPlus, Version 8.9.0-eba93e8e1b, YMD=2019.03.20 17:55
1,5,Environment Title[],Latitude[deg],Longitude[deg],Time Zone[],Elevation[m]
2,8,Day of Simulation[],Month[],Day of Month[],DST Indicator[1=yes 0=no],Hour[],StartMinute[],EndMinute[],DayType
3,5,Cumulative Day of Simulation[],Month[],Day of Month[],DST Indicator[1=yes 0=no],DayType  ! When Daily Report Variables Requested
4,2,Cumulative Days of Simulation[],Month[]  ! When Monthly Report Variables Requested
5,1,Cumulative Days of Simulation[] ! When Run Period Report Variables Requested
6,1,Calendar Year of Simulation[] ! When Annual Report Variables Requested
7,9,Environment,Site Outdoor Air Drybulb Temperature [C] !Monthly [Value,Min,Day,Hour,Minute,Max,Day,Hour,Minute]
8,1,Environment,Site Outdoor Air Wetbulb Temperature [C] !TimeStep
1112,1,ALL_ST=DINING - BAR LOUNGE/LEISURE_FL=STORY 4_SCH=B,Zone Air Temperature [C] !Hourly
1113,7,ALL_ST=DINING - BAR LOUNGE/LEISURE_FL=STORY 4_SCH=B,Zone Air Relative Humidity [%] !Daily [Value,Min,Hour,Minute,Max,Hour,Minute]
1152,1,ALL_ST=DINING - FAMILY SPACE_FL=STORY 4_SCH=B,Zone Air Temperature [C] !Hourly
1153,7,ALL_ST=DINING - FAMILY SPACE_FL=STORY 4_SCH=B,Zone Air Relative Humidity [%] !Daily [Value,Min,Hour,Minute,Max,Hour,Minute]
1192,1,ALL_ST=DINING - OTHER_FL=STORY 4_SCH=B,Zone Air Temperature [C] !Hourly
1193,7,ALL_ST=DINING - OTHER_FL=STORY 4_SCH=B,Zone Air Relative Humidity [%] !Daily [Value,Min,Hour,Minute,Max,Hour,Minute]
1232,1,ALL_ST=DRESS./FITT. - PERFORMANCE ARTS_FL=STORY 3_SCH=C,Zone Air Temperature [C] !Hourly
1233,7,ALL_ST=DRESS./FITT. - PERFORMANCE ARTS_FL=STORY 3_SCH=C,Zone Air Relative Humidity [%] !Daily [Value,Min,Hour,Minute,Max,Hour,Minute]
1272,1,ALL_ST=FIRE STATION - ENGINE ROOM_FL=STORY 2_SCH=H,Zone Air Temperature [C] !Hourly
1273,7,ALL_ST=FIRE STATION - ENGINE ROOM_FL=STORY 2_SCH=H,Zone Air Relative Humidity [%] !Daily [Value,Min,Hour,Minute,Max,Hour,Minute]
1312,1,ALL_ST=FOOD PREPARATION - VENTED_FL=STORY 1_SCH=B,Zone Air Temperature [C] !Hourly
1313,7,ALL_ST=FOOD PREPARATION - VENTED_FL=STORY 1_SCH=B,Zone Air Relative Humidity [%] !Daily [Value,Min,Hour,Minute,Max,Hour,Minute]
1352,1,ALL_ST=FOOD PREPARATION_FL=STORY 3_SCH=B,Zone Air Temperature [C] !Hourly
1353,7,ALL_ST=FOOD PREPARATION_FL=STORY 3_SCH=B,Zone Air Relative Humidity [%] !Daily [Value,Min,Hour,Minute,Max,Hour,Minute]
1392,1,ALL_ST=GYM - AUDIENCE_FL=STORY 2_SCH=B,Zone Air Temperature [C] !Hourly
1393,7,ALL_ST=GYM - AUDIENCE_FL=STORY 2_SCH=B,Zone Air Relative Humidity [%] !Daily [Value,Min,Hour,Minute,Max,Hour,Minute]
1432,1,DU_BT=SPACE FUNCTION_ST=DORMITORY - LIVING QUARTERS_FL=STORY 3_SCHG,Zone Air Temperature [C] !Hourly
1433,7,DU_BT=SPACE FUNCTION_ST=DORMITORY - LIVING QUARTERS_FL=STORY 3_SCHG,Zone Air Relative Humidity [%] !Daily [Value,Min,Hour,Minute,Max,Hour,Minute]
1472,1,DU_BT=SPACE FUNCTION_ST=DWELLING UNIT(S)_FL=STORY 3_SCHG,Zone Air Temperature [C] !Hourly
1473,7,DU_BT=SPACE FUNCTION_ST=DWELLING UNIT(S)_FL=STORY 3_SCHG,Zone Air Relative Humidity [%] !Daily [Value,Min,Hour,Minute,Max,Hour,Minute]
1512,1,DU_BT=SPACE FUNCTION_ST=FIRE STATION - QUARTERS_FL=STORY 2_SCHG,Zone Air Temperature [C] !Hourly
1513,7,DU_BT=SPACE FUNCTION_ST=FIRE STATION - QUARTERS_FL=STORY 2_SCHG,Zone Air Relative Humidity [%] !Daily [Value,Min,Hour,Minute,Max,Hour,Minute]
1552,1,WILD_ST=ELECTRICAL/MECHANICAL-SCH-A_FL=STORY 4_SCH=B,Zone Air Temperature [C] !Hourly
1553,7,WILD_ST=ELECTRICAL/MECHANICAL-SCH-A_FL=STORY 4_SCH=B,Zone Air Relative Humidity [%] !Daily [Value,Min,Hour,Minute,Max,Hour,Minute]
1592,1,WILD_ST=ELECTRICAL/MECHANICAL-SCH-B_FL=STORY 1_SCH=B,Zone Air Temperature [C] !Hourly
1593,7,WILD_ST=ELECTRICAL/MECHANICAL-SCH-B_FL=STORY 1_SCH=B,Zone Air Relative Humidity [%] !Daily [Value,Min,Hour,Minute,Max,Hour,Minute]
1632,1,WILD_ST=ELECTRICAL/MECHANICAL-SCH-C_FL=STORY 4_SCH=B,Zone Air Temperature [C] !Hourly
1633,7,WILD_ST=ELECTRICAL/MECHANICAL-SCH-C_FL=STORY 4_SCH=B,Zone Air Relative Humidity [%] !Daily [Value,Min,Hour,Minute,Max,Hour,Minute]
1672,1,WILD_ST=ELECTRICAL/MECHANICAL-SCH-D_FL=STORY 1_SCH=B,Zone Air Temperature [C] !Hourly
1673,7,WILD_ST=ELECTRICAL/MECHANICAL-SCH-D_FL=STORY 1_SCH=B,Zone Air Relative Humidity [%] !Daily [Value,Min,Hour,Minute,Max,Hour,Minute]
1712,1,WILD_ST=ELECTRICAL/MECHANICAL-SCH-E_FL=STORY 1_SCH=B,Zone Air Temperature [C] !Hourly
1713,7,WILD_ST=ELECTRICAL/MECHANICAL-SCH-E_FL=STORY 1_SCH=B,Zone Air Relative Humidity [%] !Daily [Value,Min,Hour,Minute,Max,Hour,Minute]
1752,1,WILD_ST=ELECTRICAL/MECHANICAL-SCH-F_FL=STORY 3_SCH=B,Zone Air Temperature [C] !Hourly
1753,7,WILD_ST=ELECTRICAL/MECHANICAL-SCH-F_FL=STORY 3_SCH=B,Zone Air Relative Humidity [%] !Daily [Value,Min,Hour,Minute,Max,Hour,Minute]
1792,1,WILD_ST=ELECTRICAL/MECHANICAL-SCH-G_FL=STORY 1_SCH=B,Zone Air Temperature [C] !Hourly
1793,7,WILD_ST=ELECTRICAL/MECHANICAL-SCH-G_FL=STORY 1_SCH=B,Zone Air Relative Humidity [%] !Daily [Value,Min,Hour,Minute,Max,Hour,Minute]
1832,1,WILD_ST=ELECTRICAL/MECHANICAL-SCH-H_FL=STORY 2_SCH=B,Zone Air Temperature [C] !Hourly
1833,7,WILD_ST=ELECTRICAL/MECHANICAL-SCH-H_FL=STORY 2_SCH=B,Zone Air Relative Humidity [%] !Daily [Value,Min,Hour,Minute,Max,Hour,Minute]
1872,1,WILD_ST=ELECTRICAL/MECHANICAL-SCH-I_FL=STORY 2_SCH=B,Zone Air Temperature [C] !Hourly
1873,7,WILD_ST=ELECTRICAL/MECHANICAL-SCH-I_FL=STORY 2_SCH=B,Zone Air Relative Humidity [%] !Daily [Value,Min,Hour,Minute,Max,Hour,Minute]
10,1,Electricity:Facility [J] !TimeStep
878,1,Gas:Facility [J] !TimeStep
End of Data Dictionary
1,FORT MCMURRAY AP ANN CLG .4% CONDNS DB=>MWB,  56.65,-111.22,  -7.00, 369.10
2,1, 7,21, 0, 1, 0.00,10.00,SummerDesignDay
8,14.218136923962174
10,306952843.0773067
878,80921248.13080783
2,1, 7,21, 0, 1,10.00,20.00,SummerDesignDay
8,14.171982153293495
10,305915093.5840193
878,75652236.35627763
2,1, 7,21, 0, 1,20.00,30.00,SummerDesignDay
8,14.125744780286427
10,305169694.14087626
878,74005580.885323
2,1, 7,21, 0, 1,30.00,40.00,SummerDesignDay
8,14.079436086331978
10,304430578.9351054
878,74144095.17129065
2,1, 7,21, 0, 1,40.00,50.00,SummerDesignDay
8,14.033050387896898
10,303692396.49455878
878,74776223.27279499
2,1, 7,21, 0, 1,50.00,60.00,SummerDesignDay
8,13.986581233564835
10,302958080.3037412
878,76837663.61840846
2,1, 7,21, 0, 1, 0.00,60.00,SummerDesignDay
1112,22.540120702355244
1152,22.36464252172186
1192,22.1973347456934
1232,24.07895010847605
1272,23.99675207598237
1312,23.998286181295169
1352,23.99862481776017
1392,22.670360120653429
1432,23.99881760680209
1472,23.907396643843446
1512,23.783415559081587
1552,23.999960858036915
1592,26.226924549841745
1632,23.864445469385875
1672,26.010538979245948
1712,25.776439513894315
1752,25.472105506957914
1792,26.133329854037226
1832,25.027574283656276
1872,25.60056609546082
2,1, 7,21, 0, 2, 0.00,10.00,SummerDesignDay
8,13.95555882260429
10,170664373.05922003
878,86113904.70119986
2,1, 7,21, 0, 2,10.00,20.00,SummerDesignDay
8,13.924507755336454
10,170643604.59257464
878,103092133.30547259
2,1, 7,21, 0, 2,20.00,30.00,SummerDesignDay
8,13.893416042989206
10,170688427.66629968
878,106284341.65289307
2,1, 7,21, 0, 2,30.00,40.00,SummerDesignDay
8,13.862289589689029
10,170393902.640511
878,70560484.94178294
2,1, 7,21, 0, 2,40.00,50.00,SummerDesignDay
8,13.831134407608739
10,169837726.79705394
878,111745848.45206213
2,1, 7,21, 0, 2,50.00,60.00,SummerDesignDay
8,13.799938415548118
10,169511731.1580675
878,114293232.25516746
2,1, 7,21, 0, 2, 0.00,60.00,SummerDesignDay
1112,22.013711462323866
1152,22.00106930421478
1192,22.00004716826426
1232,23.805964973124476
1272,23.997295910742705
1312,24.342047274603034
1352,24.408011740964509
1392,22.155530830928936
1432,23.999314795755514
1472,23.920626457254888
1512,23.814408410645944
1552,24.93148935152372
1592,26.5117071954907
1632,24.916956875247079
1672,26.230444660857317
1712,26.000682054663355
1752,26.072412088156417
1792,26.39135840508744
1832,25.742376663769208
1872,26.187199545603787
2,1, 7,21, 0, 3, 0.00,10.00,SummerDesignDay
8,13.776521671948676
10,69926773.62845344
878,36301392.1916646
2,1, 7,21, 0, 3,10.00,20.00,SummerDesignDay
8,13.753085235778466
10,69629155.6688918
878,2430719.7805511339
2,1, 7,21, 0, 3,20.00,30.00,SummerDesignDay
8,13.729636002354969
10,69795835.10033092
878,36477476.478088658
2,1, 7,21, 0, 3,30.00,40.00,SummerDesignDay
8,13.706147375533054
10,69583714.82578975
878,38044593.26404234
2,1, 7,21, 0, 3,40.00,50.00,SummerDesignDay
8,13.682651961920304
10,70345943.59699302
878,36697478.950171548
2,1, 7,21, 0, 3,50.00,60.00,SummerDesignDay
8,13.659136670643687
10,68952650.88441035
878,2906103.2979622685
2,1, 7,21, 0, 3, 0.00,60.00,SummerDesignDay
1112,20.6641956218349
1152,20.698930217533719
1192,20.708775748764638
1232,23.573899777880944
1272,23.997905717003666
1312,23.634681283626994
1352,23.741564324920899
1392,21.72348145547893
1432,23.999560376103749
1472,23.936441517668859
1512,23.85139026784483
1552,24.766971099091707
1592,26.263987808605209
1632,24.795405551333898
1672,25.955753108538678
1712,25.730993450348249
1752,25.924760225234335
1792,26.14341650128907
1832,25.64668482673406
1872,26.044440112536166
2,1, 7,21, 0, 4, 0.00,10.00,SummerDesignDay
8,13.63560137410855
10,69260153.08494362
878,36890597.32590145
2,1, 7,21, 0, 4,10.00,20.00,SummerDesignDay
8,13.612040802606578
10,68908697.28912488
878,37026299.70933172
2,1, 7,21, 0, 4,20.00,30.00,SummerDesignDay
8,13.58846620506876
10,68663853.45088209
878,37187856.56145052
2,1, 7,21, 0, 4,30.00,40.00,SummerDesignDay
8,13.56487178447336
10,68417245.85724478
878,32257450.346096845
2,1, 7,21, 0, 4,40.00,50.00,SummerDesignDay
8,13.541257354069103
10,68172141.91712767
878,8570454.597148035
2,1, 7,21, 0, 4,50.00,60.00,SummerDesignDay
8,13.517617463812285
10,67942350.80595623
878,37489776.890607278
2,1, 7,21, 0, 4, 0.00,60.00,SummerDesignDay
1112,19.787041404380728
1152,19.815129598665427
1192,19.831531288018387
1232,23.304723381712866
1272,23.996962319902278
1312,23.046525075711533
1352,23.159567144730948
1392,21.49954484759266
1432,23.999444986993344
1472,23.906562218066168
1512,23.782667052685257
1552,24.179068440086838
1592,25.77573906073583
1632,24.23089104068859
1672,25.37281752601112
1712,25.158426161710087
1752,25.504653666175007
1792,25.62177506968013
1832,25.243380479122299
1872,25.63709347343074
2,1, 7,21, 0, 5, 0.00,10.00,SummerDesignDay
8,13.50185415824011
10,67726657.66335683
878,37612033.180456209
2,1, 7,21, 0, 5,10.00,20.00,SummerDesignDay
8,13.486076034032447
10,67623000.10903403
878,37731558.677964437
2,1, 7,21, 0, 5,20.00,30.00,SummerDesignDay
8,13.470289340350983
10,67497830.72031872
878,3860850.009397645
2,1, 7,21, 0, 5,30.00,40.00,SummerDesignDay
8,13.454493322631063
10,67389537.43268614
878,37807790.91000027
2,1, 7,21, 0, 5,40.00,50.00,SummerDesignDay
8,13.438688835118548
10,67267456.4455514
878,37913209.75678851
2,1, 7,21, 0, 5,50.00,60.00,SummerDesignDay
8,13.422888173889437
10,67122822.60546875
878,38034420.24778975
2,1, 7,21, 0, 5, 0.00,60.00,SummerDesignDay
1112,19.485527257334107
1152,19.661158461891025
1192,19.601176843154478
1232,23.152849752481897
1272,23.99703027647716
1312,22.827394587812923
1352,22.937666846552433
1392,21.42239922794742
1432,23.999552288339407
1472,23.906229562867094
1512,23.782531110214508
1552,23.9173459269025
1592,25.589063906501449
1632,23.977919374605095
1672,25.160260220806994
1712,24.905470080561888
1752,25.29655050609253
1792,25.431112109704235
1832,25.140020226923878
1872,25.446767345806007
2,1, 7,21, 0, 6, 0.00,10.00,SummerDesignDay
8,13.438688835118548
10,66995318.45029134
878,5650402.080734714
2,1, 7,21, 0, 6,10.00,20.00,SummerDesignDay
8,13.454493322631063
10,67097771.16966641
878,36208025.69732318
2,1, 7,21, 0, 6,20.00,30.00,SummerDesignDay
8,13.470289340350983
10,66930516.77268752
878,37753902.86770529
2,1, 7,21, 0, 6,30.00,40.00,SummerDesignDay
8,13.486076034032447
10,66877574.17385059
878,37717693.67777155
2,1, 7,21, 0, 6,40.00,50.00,SummerDesignDay
8,13.50185415824011
10,66821261.12847072
878,37676905.13958106
2,1, 7,21, 0, 6,50.00,60.00,SummerDesignDay
8,13.517617463812285
10,66769132.769291657
878,3639024.8394270327
2,1, 7,21, 0, 6, 0.00,60.00,SummerDesignDay
1112,19.512426429737304
1152,20.311087991848188
1192,19.763705711686098
1232,23.430815175261857
1272,23.997034596411493
1312,22.706394541159754
1352,22.865701828293017
1392,21.35571255116513
1432,23.99589420583753
1472,23.905939424188064
1512,23.783274846240535
1552,23.95892426505182
1592,25.49288829631376
1632,24.025742907246323
1672,25.071292699398375
1712,24.790207233994633
1752,25.207201913556163
1792,25.345433024952695
1832,25.42394579576189
1872,25.36931109466529
2,1, 7,21, 0, 7, 0.00,10.00,SummerDesignDay
8,13.572736920571789
10,70206392.77268739
878,38504923.04787064
2,1, 7,21, 0, 7,10.00,20.00,SummerDesignDay
8,13.627748229152554
10,71095056.4389867
878,55846329.22227538
2,1, 7,21, 0, 7,20.00,30.00,SummerDesignDay
8,13.682651961920304
10,71118760.52386463
878,55846984.51106516
2,1, 7,21, 0, 7,30.00,40.00,SummerDesignDay
8,13.737448093244995
10,71248411.11631038
878,37757050.60470572
2,1, 7,21, 0, 7,40.00,50.00,SummerDesignDay
8,13.792137011831216
10,71370698.59672413
878,37489029.22457848
2,1, 7,21, 0, 7,50.00,60.00,SummerDesignDay
8,13.846719282840333
10,71490664.53052874
878,37223026.46598062
2,1, 7,21, 0, 7, 0.00,60.00,SummerDesignDay
1112,19.994754752417788
1152,21.344451753553455
1192,20.14838345671141
1232,23.912419205089966
1272,23.996990089815854
1312,22.758718639353817
1352,22.842273892849325
1392,21.293668899365888
1432,23.999135827052539
1472,23.905673933295863
1512,23.782494133275539
1552,24.28481090194215
1592,25.483064541758279
1632,24.362532599046565
1672,25.07350563724897
1712,24.771967600937626
1752,25.245053725595328
1792,25.369990629876754
1832,25.823604760162437
1872,25.402038906543628
2,1, 7,21, 0, 8, 0.00,10.00,SummerDesignDay
8,13.978831900527043
10,87624831.53814557
878,83574868.28722553
2,1, 7,21, 0, 8,10.00,20.00,SummerDesignDay
8,14.110321014287419
10,89257286.69208893
878,84473525.03257108
2,1, 7,21, 0, 8,20.00,30.00,SummerDesignDay
8,14.241191509616986
10,89996081.40691155
878,83870154.44783756
2,1, 7,21, 0, 8,30.00,40.00,SummerDesignDay
8,14.371447531304272
10,90792395.78634022
878,111882426.77597273
2,1, 7,21, 0, 8,40.00,50.00,SummerDesignDay
8,14.501093766564925
10,90843228.02639614
878,97569875.9631963
2,1, 7,21, 0, 8,50.00,60.00,SummerDesignDay
8,14.630134792273804
10,90796489.86591816
878,83729961.2364346
2,1, 7,21, 0, 8, 0.00,60.00,SummerDesignDay
1112,21.1969629071552
1152,22.87401060061192
1192,21.281376357488978
1232,24.00284665718496
1272,23.997808412378718
1312,23.08319305072266
1352,23.129237649063229
1392,21.235858295914637
1432,23.998985408078398
1472,23.932599763245219
1512,23.843727313314987
1552,25.03399139966767
1592,25.580708200834186
1632,25.1234900151867
1672,25.175334782834687
1712,24.87349713516242
1752,25.4493301984147
1792,25.517987997929166
1832,26.260758712381344
1872,25.578381019218999
2,1, 7,21, 0, 9, 0.00,10.00,SummerDesignDay
8,14.773641492809972
10,135404047.8648084
878,84275341.4805035
2,1, 7,21, 0, 9,10.00,20.00,SummerDesignDay
8,14.91640948124148
10,121038998.27016248
878,81217525.79864235
2,1, 7,21, 0, 9,20.00,30.00,SummerDesignDay
8,15.05843890714102
10,127217610.81801728
878,81255355.2159976
2,1, 7,21, 0, 9,30.00,40.00,SummerDesignDay
8,15.199735893563798
10,127139444.38358972
878,81258321.20608722
2,1, 7,21, 0, 9,40.00,50.00,SummerDesignDay
8,15.340306256439395
10,130688626.88877517
878,81261205.41333331
2,1, 7,21, 0, 9,50.00,60.00,SummerDesignDay
8,15.48015101768072
10,138312449.69398285
878,81263549.12911745
2,1, 7,21, 0, 9, 0.00,60.00,SummerDesignDay
1112,23.075981452218426
1152,23.986437672319246
1192,23.14197080934056
1232,23.999822536364534
1272,23.99819844808192
1312,23.698385889862448
1352,23.739503432038565
1392,21.18104962982147
1432,23.998884809307556
1472,23.944855372328644
1512,23.87106464043754
1552,24.02680900628056
1592,24.773975830223276
1632,24.049441821108656
1672,24.473104561368243
1712,24.13621963453602
1752,24.377508518677705
1792,24.819557287326615
1832,25.205434928515286
1872,24.491684228943343
2,1, 7,21, 0,10, 0.00,10.00,SummerDesignDay
8,15.60467292907716
10,246050936.834432
878,141437888.58666016
2,1, 7,21, 0,10,10.00,20.00,SummerDesignDay
8,15.72862731650033
10,254327849.55293606
878,108172095.47876086
2,1, 7,21, 0,10,20.00,30.00,SummerDesignDay
8,15.852017409284228
10,262531614.7951269
878,143341666.01030598
2,1, 7,21, 0,10,30.00,40.00,SummerDesignDay
8,15.974848118364367
10,266901326.78910793
878,100748584.46658674
2,1, 7,21, 0,10,40.00,50.00,SummerDesignDay
8,16.097123145563505
10,272742949.63491019
878,143601784.72639353
2,1, 7,21, 0,10,50.00,60.00,SummerDesignDay
8,16.218846351168599
10,277728112.91115126
878,125749362.7866083
2,1, 7,21, 0,10, 0.00,60.00,SummerDesignDay
1112,23.998832623558657
1152,23.999025141451456
1192,23.998951267158835
1232,23.99979714987018
1272,23.997221540088263
1312,23.999630439778885
1352,23.9996844599449
1392,21.950394099442023
1432,23.99886840200932
1472,23.919248584715189
1512,23.81227866585293
1552,23.99981928214018
1592,24.5122501406606
1632,24.124057141285758
1672,24.291802023676728
1712,23.886890953924924
1752,24.083926628313134
1792,24.66536093354308
1832,24.714753836572496
1872,24.044265401022057
2,1, 7,21, 0,11, 0.00,10.00,SummerDesignDay
8,16.325793027093189
10,338830185.0255857
878,113116356.44554825
2,1, 7,21, 0,11,10.00,20.00,SummerDesignDay
8,16.432322158488288
10,343737930.86566928
878,117976383.7174054
2,1, 7,21, 0,11,20.00,30.00,SummerDesignDay
8,16.538424180249178
10,348213046.62719878
878,113257590.88767222
2,1, 7,21, 0,11,30.00,40.00,SummerDesignDay
8,16.644108396469087
10,352589581.5000732
878,115599830.24473313
2,1, 7,21, 0,11,40.00,50.00,SummerDesignDay
8,16.749376736593655
10,356755459.6846328
878,115625933.58256415
2,1, 7,21, 0,11,50.00,60.00,SummerDesignDay
8,16.854232613237156
10,360835262.7210024
878,113149246.85468839
2,1, 7,21, 0,11, 0.00,60.00,SummerDesignDay
1112,23.99887198200153
1152,23.998259268954997
1192,23.998640445973199
1232,23.99984778476904
1272,23.996508521005866
1312,23.99922221835617
1352,23.99930557450719
1392,22.000153601294998
1432,23.998716941687794
1472,23.90561735626831
1512,23.7809985626853
1552,23.99979103437531
1592,24.377710881425384
1632,24.3812557106981
1672,24.251111451039475
1712,23.82675939321851
1752,24.04042989174323
1792,24.624604618459946
1832,24.120476735848198
1872,23.711698075515029
2,1, 7,21, 0,12, 0.00,10.00,SummerDesignDay
8,16.92390823520069
10,419903442.5153753
878,61483679.34121187
2,1, 7,21, 0,12,10.00,20.00,SummerDesignDay
8,16.99340178950456
10,422183986.40157297
878,77983408.40538205
2,1, 7,21, 0,12,20.00,30.00,SummerDesignDay
8,17.06272006743463
10,425290372.06753918
878,77990973.95771902
2,1, 7,21, 0,12,30.00,40.00,SummerDesignDay
8,17.131853229172639
10,428300077.0782612
878,78009684.2461907
2,1, 7,21, 0,12,40.00,50.00,SummerDesignDay
8,17.200807172194087
10,431180042.17100206
878,78028213.38918033
2,1, 7,21, 0,12,50.00,60.00,SummerDesignDay
8,17.269582116758607
10,433957418.62855938
878,44506761.71851805
2,1, 7,21, 0,12, 0.00,60.00,SummerDesignDay
1112,23.99859759155635
1152,23.9981886781102
1192,23.998396050610496
1232,23.999822328568034
1272,23.996284083003265
1312,23.998990422801929
1352,23.999072047465856
1392,22.43041379056773
1432,23.99893564423327
1472,23.90602612366931
1512,23.781597583340738
1552,23.999808898494654
1592,24.32789249701567
1632,24.656324501522524
1672,24.280649251103456
1712,23.850492444151784
1752,24.154194896911095
1792,24.637625782358595
1832,23.604730526254519
1872,23.497053977317319
2,1, 7,21, 0,13, 0.00,10.00,SummerDesignDay
8,17.32447360221357
10,439621378.3676017
878,74859012.16545198
2,1, 7,21, 0,13,10.00,20.00,SummerDesignDay
8,17.379251291230806
10,441527740.9219328
878,80493115.35273981
2,1, 7,21, 0,13,20.00,30.00,SummerDesignDay
8,17.433921312061729
10,446436219.74877676
878,80649546.16655351
2,1, 7,21, 0,13,30.00,40.00,SummerDesignDay
8,17.488473222557489
10,446462383.31718108
878,80648711.61375982
2,1, 7,21, 0,13,40.00,50.00,SummerDesignDay
8,17.542913447755134
10,449959701.3639085
878,80647882.61060217
2,1, 7,21, 0,13,50.00,60.00,SummerDesignDay
8,17.59724609886134
10,452150267.48623749
878,80647054.28197965
2,1, 7,21, 0,13, 0.00,60.00,SummerDesignDay
1112,23.998184316352864
1152,23.997824136010335
1192,23.998032868281979
1232,23.99976879132417
1272,23.996494361438889
1312,23.998907772018869
1352,23.99905676854954
1392,23.14797472817358
1432,23.999145292520696
1472,23.913414035331145
1512,23.798122509936417
1552,23.99987910547002
1592,24.262738377229327
1632,24.816141619017075
1672,24.26310130678691
1712,23.839666675271216
1752,24.282032035591845
1792,24.598082672178994
1832,23.367479993238704
1872,23.37099151770269
2,1, 7,21, 0,14, 0.00,10.00,SummerDesignDay
8,17.6311450462694
10,453043192.38388559
878,93844433.64185834
2,1, 7,21, 0,14,10.00,20.00,SummerDesignDay
8,17.665000449016245
10,454843244.21091148
878,106764621.30506537
2,1, 7,21, 0,14,20.00,30.00,SummerDesignDay
8,17.698812743128934
10,456578346.79159626
878,90238977.33483364
2,1, 7,21, 0,14,30.00,40.00,SummerDesignDay
8,17.732582050940107
10,458480826.07167318
878,83130176.65115263
2,1, 7,21, 0,14,40.00,50.00,SummerDesignDay
8,17.766307345121004
10,460535361.21375778
878,83156444.3419367
2,1, 7,21, 0,14,50.00,60.00,SummerDesignDay
8,17.79999023167558
10,462789009.0795889
878,83183399.09424447
2,1, 7,21, 0,14, 0.00,60.00,SummerDesignDay
1112,23.997464450374527
1152,23.996968820227765
1192,23.997268537323845
1232,23.999663746416144
1272,23.996076993213923
1312,23.99841541511824
1352,23.998662936425334
1392,23.297191821455784
1432,23.999130186898016
1472,23.90675292995334
1512,23.782541099525905
1552,24.0000262787384
1592,24.17640655798652
1632,24.74695996612287
1672,24.207958647845588
1712,23.799786891907588
1752,24.352114025067239
1792,24.519380654987896
1832,23.226279015183569
1872,23.308694853121705
2,1, 7,21, 0,15, 0.00,10.00,SummerDesignDay
8,17.79999023167558
10,461790576.5414242
878,89198497.57931832
2,1, 7,21, 0,15,10.00,20.00,SummerDesignDay
8,17.79999023167558
10,463308907.83791187
878,125246249.8613274
2,1, 7,21, 0,15,20.00,30.00,SummerDesignDay
8,17.79999023167558
10,464455155.3031351
878,85792186.44586888
2,1, 7,21, 0,15,30.00,40.00,SummerDesignDay
8,17.79999023167558
10,465510322.19964417
878,85857137.19928216
2,1, 7,21, 0,15,40.00,50.00,SummerDesignDay
8,17.79999023167558
10,466407743.10980018
878,104104060.35696137
2,1, 7,21, 0,15,50.00,60.00,SummerDesignDay
8,17.79999023167558
10,467106508.1053623
878,110581920.62254897
2,1, 7,21, 0,15, 0.00,60.00,SummerDesignDay
1112,23.99786080263469
1152,23.997370247205976
1192,23.997629626627135
1232,23.999551772000915
1272,23.9961109016854
1312,23.998366589280378
1352,23.99861480187541
1392,22.82753963911645
1432,23.999064450848566
1472,23.907813339890976
1512,23.782710022991098
1552,23.999957684947103
1592,24.004024545158317
1632,24.13238640096982
1672,24.06491080779422
1712,23.67215321057954
1752,24.15307550880422
1792,24.345683938863503
1832,22.963834604657796
1872,23.349117430420887
2,1, 7,21, 0,16, 0.00,10.00,SummerDesignDay
8,17.759562446305357
10,464023786.05289509
878,85730097.74813578
2,1, 7,21, 0,16,10.00,20.00,SummerDesignDay
8,17.71907809634183
10,463291932.3790101
878,85792987.67511618
2,1, 7,21, 0,16,20.00,30.00,SummerDesignDay
8,17.67853788661001
10,461845224.66436555
878,116573062.21820605
2,1, 7,21, 0,16,30.00,40.00,SummerDesignDay
8,17.63791796367351
10,460155679.2520603
878,97863939.0481049
2,1, 7,21, 0,16,40.00,50.00,SummerDesignDay
8,17.59724609886134
10,458285896.3116856
878,85738615.76726109
2,1, 7,21, 0,16,50.00,60.00,SummerDesignDay
8,17.55650676726033
10,456198981.4009151
878,85814335.21193716
2,1, 7,21, 0,16, 0.00,60.00,SummerDesignDay
1112,23.998676550010634
1152,23.998323498952546
1192,23.99849145643807
1232,23.999465186345874
1272,23.996246005732869
1312,23.998714568446347
1352,23.99888033067067
1392,22.20941679940785
1432,23.99870735036009
1472,23.908666192161339
1512,23.78249299423093
1552,23.999894786563
1592,23.825487492056284
1632,23.1781270704995
1672,23.894619971802717
1712,23.51091788879036
1752,23.821429938475139
1792,24.14357674686171
1832,22.679817712143078
1872,23.530158969105846
2,1, 7,21, 0,17, 0.00,10.00,SummerDesignDay
8,17.50209486331892
10,455079373.81109246
878,106501718.01905248
2,1, 7,21, 0,17,10.00,20.00,SummerDesignDay
8,17.447570789624618
10,451930565.9670425
878,101214072.27400452
2,1, 7,21, 0,17,20.00,30.00,SummerDesignDay
8,17.392929544208135
10,448879084.93021038
878,82870863.88992058
2,1, 7,21, 0,17,30.00,40.00,SummerDesignDay
8,17.33818013976614
10,445814265.4519145
878,82890334.14810489
2,1, 7,21, 0,17,40.00,50.00,SummerDesignDay
8,17.283317298559309
10,442633601.00351598
878,82913293.69854817
2,1, 7,21, 0,17,50.00,60.00,SummerDesignDay
8,17.22833552437677
10,439290076.36555936
878,82936228.83210911
2,1, 7,21, 0,17, 0.00,60.00,SummerDesignDay
1112,23.999270957010969
1152,23.999059654525739
1192,23.999161557423276
1232,23.99932074954998
1272,23.996274935071324
1312,23.999055405769736
1352,23.999134890676598
1392,22.052455132544613
1432,23.99824126564216
1472,23.90908106420517
1512,23.78209185010607
1552,23.999714730004589
1592,23.865489483018963
1632,22.50412666357589
1672,23.900196540463204
1712,23.521344490570557
1752,23.72781102171852
1792,24.12554546066849
1832,22.664962793847378
1872,23.841948725719637
2,1, 7,21, 0,18, 0.00,10.00,SummerDesignDay
8,17.159453019160176
10,432108729.6240728
878,107366495.85007008
2,1, 7,21, 0,18,10.00,20.00,SummerDesignDay
8,17.090391773337136
10,428868002.6784201
878,112692679.94038847
2,1, 7,21, 0,18,20.00,30.00,SummerDesignDay
8,17.021151077964786
10,424828190.0394504
878,88279526.03789529
2,1, 7,21, 0,18,30.00,40.00,SummerDesignDay
8,16.951729380464653
10,420694234.98992088
878,128242089.90119073
2,1, 7,21, 0,18,40.00,50.00,SummerDesignDay
8,16.882126503829249
10,416710805.6379122
878,92482680.24390775
2,1, 7,21, 0,18,50.00,60.00,SummerDesignDay
8,16.812341807494034
10,412700438.01444587
878,90604392.68724263
2,1, 7,21, 0,18, 0.00,60.00,SummerDesignDay
1112,23.999281307124169
1152,23.999165675960226
1192,23.999225524700774
1232,23.99933907245945
1272,23.996268863496455
1312,23.999094755165986
1352,23.999122545035367
1392,22.213809084290149
1432,23.99779964874362
1472,23.909262913570229
1512,23.781660895184236
1552,23.99975113705632
1592,24.102536895776955
1632,22.226479038153859
1672,24.074363238874694
1712,23.700491513541157
1752,23.88174765248264
1792,24.28202550805716
1832,22.880406232985036
1872,24.24388082644602
2,1, 7,21, 0,19, 0.00,10.00,SummerDesignDay
8,16.707321072823203
10,421572448.27711597
878,134127772.0233658
2,1, 7,21, 0,19,10.00,20.00,SummerDesignDay
8,16.601881826644556
10,416901853.87760576
878,91291100.66326028
2,1, 7,21, 0,19,20.00,30.00,SummerDesignDay
8,16.496030555252849
10,411825364.0989956
878,136952508.14982204
2,1, 7,21, 0,19,30.00,40.00,SummerDesignDay
8,16.389760181474104
10,406749955.98578789
878,91283052.89993049
2,1, 7,21, 0,19,40.00,50.00,SummerDesignDay
8,16.283067654262039
10,401669763.6625854
878,136958003.16593088
2,1, 7,21, 0,19,50.00,60.00,SummerDesignDay
8,16.17595057957811
10,396566184.6294973
878,91274769.94349717
2,1, 7,21, 0,19, 0.00,60.00,SummerDesignDay
1112,23.999048968315877
1152,23.998910090216996
1192,23.999003090214104
1232,23.999450230564667
1272,23.99627185193093
1312,23.99875442035351
1352,23.998835896995876
1392,22.782261067741616
1432,23.996820633966306
1472,23.90893286697909
1512,23.78132823583383
1552,23.99979013995323
1592,24.473803784867785
1632,22.27603025741409
1672,24.36978230697932
1712,24.00594742528817
1752,24.174200024366149
1792,24.565003383244023
1832,23.250306247517753
1872,24.64672145366291
2,1, 7,21, 0,20, 0.00,10.00,SummerDesignDay
8,16.097123145563505
10,408811381.3007867
878,118259062.51978666
2,1, 7,21, 0,20,10.00,20.00,SummerDesignDay
8,16.018070242471564
10,404342592.2445686
878,96046080.96193612
2,1, 7,21, 0,20,20.00,30.00,SummerDesignDay
8,15.938779752340516
10,400422722.15900269
878,85381726.56281406
2,1, 7,21, 0,20,30.00,40.00,SummerDesignDay
8,15.85926152575189
10,396318741.44575557
878,85450032.57980494
2,1, 7,21, 0,20,40.00,50.00,SummerDesignDay
8,15.779503718563929
10,392046431.5486134
878,118705130.29603796
2,1, 7,21, 0,20,50.00,60.00,SummerDesignDay
8,15.699515709672767
10,387619258.304709
878,94839953.94574537
2,1, 7,21, 0,20, 0.00,60.00,SummerDesignDay
1112,23.998667452099089
1152,23.99853128252045
1192,23.998559274847837
1232,23.999664419220918
1272,23.996350894748657
1312,23.998237074732065
1352,23.99831910167182
1392,23.447425535908044
1432,23.996417239849678
1472,23.908793842243289
1512,23.782535352304334
1552,23.999848210380436
1592,24.932129262389514
1632,22.63217025871886
1672,24.7572851202391
1712,24.409318652487714
1752,24.55837487918346
1792,24.941040805899566
1832,23.731214822833168
1872,24.9707697760543
2,1, 7,21, 0,21, 0.00,10.00,SummerDesignDay
8,15.63389147320404
10,379604745.92512688
878,103004025.6778999
2,1, 7,21, 0,21,10.00,20.00,SummerDesignDay
8,15.56810827419793
10,375951261.2179223
878,132522524.19633469
2,1, 7,21, 0,21,20.00,30.00,SummerDesignDay
8,15.502170882753524
10,371408768.4673581
878,128939069.93315782
2,1, 7,21, 0,21,30.00,40.00,SummerDesignDay
8,15.436068032613852
10,366960008.0575201
878,107706912.8574817
2,1, 7,21, 0,21,40.00,50.00,SummerDesignDay
8,15.369804371206009
10,362994704.0156578
878,142015814.47419886
2,1, 7,21, 0,21,50.00,60.00,SummerDesignDay
8,15.303384603594449
10,358833842.51953187
878,95679702.27653615
2,1, 7,21, 0,21, 0.00,60.00,SummerDesignDay
1112,23.998473960184254
1152,23.998332908841694
1192,23.99840092715826
1232,23.999795042092388
1272,23.996476897794424
1312,23.997819278315889
1352,23.9979911007109
1392,23.66064767116599
1432,23.99676258691856
1472,23.908486461636348
1512,23.783175989995276
1552,23.999922987443218
1592,25.46021712003299
1632,23.258004566409026
1672,25.23379794825642
1712,24.907662646820854
1752,25.043912826826163