Program Version,EnergyPlus, Version 8.9.0-eba93e8e1b, YMD=2019.03.28 13:47
1,5,Environment Title[],Latitude[deg],Longitude[deg],Time Zone[],Elevation[m]
2,8,Day of Simulation[],Month[],Day of Month[],DST Indicator[1=yes 0=no],Hour[],StartMinute[],EndMinute[],DayType
3,5,Cumulative Day of Simulation[],Month[],Day of Month[],DST Indicator[1=yes 0=no],DayType  ! When Daily Report Variables Requested
4,2,Cumulative Days of Simulation[],Month[]  ! When Monthly Report Variables Requested
5,1,Cumulative Days of Simulation[] ! When Run Period Report Variables Requested
6,1,Calendar Year of Simulation[] ! When Annual Report Variables Requested
7,9,Environment,Site Outdoor Air Drybulb Temperature [C] !Monthly [Value,Min,Day,Hour,Minute,Max,Day,Hour,Minute]
8,1,Environment,Site Outdoor Air Wetbulb Temperature [C] !TimeStep
1112,1,SP-GUEST ROOM-SPACE FUNCTION SYS-1 FLR-4 SCH-F HPLCMT-NORTH ZN,Zone Air Temperature [C] !Hourly
1113,7,SP-GUEST ROOM-SPACE FUNCTION SYS-1 FLR-4 SCH-F HPLCMT-NORTH ZN,Zone Air Relative Humidity [%] !Daily [Value,Min,Hour,Minute,Max,Hour,Minute]
1152,1,SP-LABORATORY - CLASSROOMS-SPACE FUNCTION SYS-3 FLR-4 SCH-D HPLCMT-WEST ZN,Zone Air Temperature [C] !Hourly
1153,7,SP-LABORATORY - CLASSROOMS-SPACE FUNCTION SYS-3 FLR-4 SCH-D HPLCMT-WEST ZN,Zone Air Relative Humidity [%] !Daily [Value,Min,Hour,Minute,Max,Hour,Minute]
1192,1,SP-LABORATORY - OTHER-SPACE FUNCTION SYS-3 FLR-4 SCH-A HPLCMT-EAST ZN,Zone Air Temperature [C] !Hourly
1193,7,SP-LABORATORY - OTHER-SPACE FUNCTION SYS-3 FLR-4 SCH-A HPLCMT-EAST ZN,Zone Air Relative Humidity [%] !Daily [Value,Min,Hour,Minute,Max,Hour,Minute]
1232,1,SP-LAUNDRY/WASHING AREA-SPACE FUNCTION SYS-3 FLR-3 SCH-C HPLCMT-CORE ZN,Zone Air Temperature [C] !Hourly
1233,7,SP-LAUNDRY/WASHING AREA-SPACE FUNCTION SYS-3 FLR-3 SCH-C HPLCMT-CORE ZN,Zone Air Relative Humidity [%] !Daily [Value,Min,Hour,Minute,Max,Hour,Minute]
1272,1,SP-LOADING DOCK INTERIOR-SPACE FUNCTION SYS-4 FLR-3 SCH-H HPLCMT-SOUTH ZN,Zone Air Temperature [C] !Hourly
1273,7,SP-LOADING DOCK INTERIOR-SPACE FUNCTION SYS-4 FLR-3 SCH-H HPLCMT-SOUTH ZN,Zone Air Relative Humidity [%] !Daily [Value,Min,Hour,Minute,Max,Hour,Minute]
1312,1,SP-LOBBY - ELEVATOR-SPACE FUNCTION SYS-3 FLR-4 SCH-C HPLCMT-SOUTH ZN,Zone Air Temperature [C] !Hourly
1313,7,SP-LOBBY - ELEVATOR-SPACE FUNCTION SYS-3 FLR-4 SCH-C HPLCMT-SOUTH ZN,Zone Air Relative Humidity [%] !Daily [Value,Min,Hour,Minute,Max,Hour,Minute]
1352,1,SP-LOBBY - HOTEL-SPACE FUNCTION SYS-3 FLR-3 SCH-H HPLCMT-EAST ZN,Zone Air Temperature [C] !Hourly
1353,7,SP-LOBBY - HOTEL-SPACE FUNCTION SYS-3 FLR-3 SCH-H HPLCMT-EAST ZN,Zone Air Relative Humidity [%] !Daily [Value,Min,Hour,Minute,Max,Hour,Minute]
1392,1,SP-LOBBY - MOTION PICTURE THEATRE-SPACE FUNCTION SYS-3 FLR-1 SCH-C HPLCMT-WEST ZN,Zone Air Temperature [C] !Hourly
1393,7,SP-LOBBY - MOTION PICTURE THEATRE-SPACE FUNCTION SYS-3 FLR-1 SCH-C HPLCMT-WEST ZN,Zone Air Relative Humidity [%] !Daily [Value,Min,Hour,Minute,Max,Hour,Minute]
1432,1,SP-LOBBY - OTHER-SPACE FUNCTION SYS-3 FLR-1 SCH-C HPLCMT-CORE ZN,Zone Air Temperature [C] !Hourly
1433,7,SP-LOBBY - OTHER-SPACE FUNCTION SYS-3 FLR-1 SCH-C HPLCMT-CORE ZN,Zone Air Relative Humidity [%] !Daily [Value,Min,Hour,Minute,Max,Hour,Minute]
1472,1,SP-LOBBY - PERFORMING ARTS THEATRE-SPACE FUNCTION SYS-3 FLR-1 SCH-C HPLCMT-SOUTH ZN,Zone Air Temperature [C] !Hourly
1473,7,SP-LOBBY - PERFORMING ARTS THEATRE-SPACE FUNCTION SYS-3 FLR-1 SCH-C HPLCMT-SOUTH ZN,Zone Air Relative Humidity [%] !Daily [Value,Min,Hour,Minute,Max,Hour,Minute]
1512,1,SP-LOBBY - SPACE DESIGNED TO ANSI/IES RP-28 (USED PRIMARILY BY RESIDENTS)-SPACE FUNCTION SYS-3 FLR-1 SCH-B HPLCMT-EAST ZN,Zone Air Temperature [C] !Hourly
1513,7,SP-LOBBY - SPACE DESIGNED TO ANSI/IES RP-28 (USED PRIMARILY BY RESIDENTS)-SPACE FUNCTION SYS-3 FLR-1 SCH-B HPLCMT-EAST ZN,Zone Air Relative Humidity [%] !Daily [Value,Min,Hour,Minute,Max,Hour,Minute]
1552,1,SP-LOCKER ROOM-SCH-A-SPACE FUNCTION SYS-6 FLR-3 SCH-A HPLCMT-NORTH ZN,Zone Air Temperature [C] !Hourly
1553,7,SP-LOCKER ROOM-SCH-A-SPACE FUNCTION SYS-6 FLR-3 SCH-A HPLCMT-NORTH ZN,Zone Air Relative Humidity [%] !Daily [Value,Min,Hour,Minute,Max,Hour,Minute]
1592,1,SP-LOCKER ROOM-SCH-B-SPACE FUNCTION SYS-6 FLR-1 SCH-B HPLCMT-NORTH ZN,Zone Air Temperature [C] !Hourly
1593,7,SP-LOCKER ROOM-SCH-B-SPACE FUNCTION SYS-6 FLR-1 SCH-B HPLCMT-NORTH ZN,Zone Air Relative Humidity [%] !Daily [Value,Min,Hour,Minute,Max,Hour,Minute]
1632,1,SP-LOCKER ROOM-SCH-C-SPACE FUNCTION SYS-6 FLR-2 SCH-C HPLCMT-WEST ZN,Zone Air Temperature [C] !Hourly
1633,7,SP-LOCKER ROOM-SCH-C-SPACE FUNCTION SYS-6 FLR-2 SCH-C HPLCMT-WEST ZN,Zone Air Relative Humidity [%] !Daily [Value,Min,Hour,Minute,Max,Hour,Minute]
1672,1,SP-LOCKER ROOM-SCH-D-SPACE FUNCTION SYS-6 FLR-2 SCH-D HPLCMT-NORTH ZN,Zone Air Temperature [C] !Hourly
1673,7,SP-LOCKER ROOM-SCH-D-SPACE FUNCTION SYS-6 FLR-2 SCH-D HPLCMT-NORTH ZN,Zone Air Relative Humidity [%] !Daily [Value,Min,Hour,Minute,Max,Hour,Minute]
1712,1,SP-LOCKER ROOM-SCH-E-SPACE FUNCTION SYS-6 FLR-4 SCH-E HPLCMT-CORE ZN,Zone Air Temperature [C] !Hourly
1713,7,SP-LOCKER ROOM-SCH-E-SPACE FUNCTION SYS-6 FLR-4 SCH-E HPLCMT-CORE ZN,Zone Air Relative Humidity [%] !Daily [Value,Min,Hour,Minute,Max,Hour,Minute]
1752,1,SP-LOCKER ROOM-SCH-F-SPACE FUNCTION SYS-6 FLR-3 SCH-F HPLCMT-WEST ZN,Zone Air Temperature [C] !Hourly
1753,7,SP-LOCKER ROOM-SCH-F-SPACE FUNCTION SYS-6 FLR-3 SCH-F HPLCMT-WEST ZN,Zone Air Relative Humidity [%] !Daily [Value,Min,Hour,Minute,Max,Hour,Minute]
1792,1,SP-LOCKER ROOM-SCH-G-SPACE FUNCTION SYS-6 FLR-2 SCH-G HPLCMT-EAST ZN,Zone Air Temperature [C] !Hourly
1793,7,SP-LOCKER ROOM-SCH-G-SPACE FUNCTION SYS-6 FLR-2 SCH-G HPLCMT-EAST ZN,Zone Air Relative Humidity [%] !Daily [Value,Min,Hour,Minute,Max,Hour,Minute]
1832,1,SP-LOCKER ROOM-SCH-H-SPACE FUNCTION SYS-6 FLR-2 SCH-H HPLCMT-SOUTH ZN,Zone Air Temperature [C] !Hourly
1833,7,SP-LOCKER ROOM-SCH-H-SPACE FUNCTION SYS-6 FLR-2 SCH-H HPLCMT-SOUTH ZN,Zone Air Relative Humidity [%] !Daily [Value,Min,Hour,Minute,Max,Hour,Minute]
1872,1,SP-LOCKER ROOM-SCH-I-SPACE FUNCTION SYS-6 FLR-2 SCH-I HPLCMT-CORE ZN,Zone Air Temperature [C] !Hourly
1873,7,SP-LOCKER ROOM-SCH-I-SPACE FUNCTION SYS-6 FLR-2 SCH-I HPLCMT-CORE ZN,Zone Air Relative Humidity [%] !Daily [Value,Min,Hour,Minute,Max,Hour,Minute]
10,1,Electricity:Facility [J] !TimeStep
878,1,Gas:Facility [J] !TimeStep
End of Data Dictionary
1,FORT MCMURRAY AP ANN CLG .4% CONDNS DB=>MWB,  56.65,-111.22,  -7.00, 369.10
2,1, 7,21, 0, 1, 0.00,10.00,SummerDesignDay
8,14.218136923962174
10,247264814.4990448
878,16984919.243238763
2,1, 7,21, 0, 1,10.00,20.00,SummerDesignDay
8,14.171982153293495
10,246167273.15128816
878,33643083.97777768
2,1, 7,21, 0, 1,20.00,30.00,SummerDesignDay
8,14.125744780286427
10,244063505.72751326
878,18771206.85153248
2,1, 7,21, 0, 1,30.00,40.00,SummerDesignDay
8,14.079436086331978
10,243331244.86921919
878,31378956.583891777
2,1, 7,21, 0, 1,40.00,50.00,SummerDesignDay
8,14.033050387896898
10,242615995.487615
878,17904293.09752044
2,1, 7,21, 0, 1,50.00,60.00,SummerDesignDay
8,13.986581233564835
10,243699185.69160576
878,33230589.14601018
2,1, 7,21, 0, 1, 0.00,60.00,SummerDesignDay
1112,23.79391148177478
1152,22.622239549489568
1192,23.64281957670977
1232,24.09617280709631
1272,24.00004028542323
1312,22.791750227323154
1352,23.998067480357748
1392,22.971581585201478
1432,22.85457087231371
1472,23.53703182988242
1512,23.903657824821875
1552,21.71068576142488
1592,22.90225067113377
1632,21.457984163113776
1672,21.784734979293334
1712,18.514459302015007
1752,22.99770402421255
1792,23.485952983494888
1832,23.455613320342328
1872,22.64069972243152
2,1, 7,21, 0, 2, 0.00,10.00,SummerDesignDay
8,13.95555882260429
10,218738110.1249114
878,16130327.557005218
2,1, 7,21, 0, 2,10.00,20.00,SummerDesignDay
8,13.924507755336454
10,218340558.63053067
878,16060808.188292576
2,1, 7,21, 0, 2,20.00,30.00,SummerDesignDay
8,13.893416042989206
10,217940929.31966225
878,16075251.154775227
2,1, 7,21, 0, 2,30.00,40.00,SummerDesignDay
8,13.862289589689029
10,218483471.10340575
878,16089750.973236744
2,1, 7,21, 0, 2,40.00,50.00,SummerDesignDay
8,13.831134407608739
10,218082194.12107498
878,29849485.134512079
2,1, 7,21, 0, 2,50.00,60.00,SummerDesignDay
8,13.799938415548118
10,217681080.0575457
878,16046715.374298374
2,1, 7,21, 0, 2, 0.00,60.00,SummerDesignDay
1112,23.468046196522108
1152,22.36623664297781
1192,23.495711149760188
1232,23.994270109480146
1272,23.898111723569945
1312,22.28858133479172
1352,23.99813732869966
1392,22.599368525650573
1432,22.50082117289111
1472,23.19398179745711
1512,23.347465024633569
1552,21.562390551160804
1592,22.302628644125787
1632,21.28716082427345
1672,21.637886223108067
1712,18.345338395142649
1752,22.736131748178424
1792,23.26299828180139
1832,23.467906758936225
1872,22.011412791038738
2,1, 7,21, 0, 3, 0.00,10.00,SummerDesignDay
8,13.776521671948676
10,202731154.7371022
878,15500926.897022266
2,1, 7,21, 0, 3,10.00,20.00,SummerDesignDay
8,13.753085235778466
10,202415886.9187307
878,14704974.770241624
2,1, 7,21, 0, 3,20.00,30.00,SummerDesignDay
8,13.729636002354969
10,202100932.37768016
878,926017.759582606
2,1, 7,21, 0, 3,30.00,40.00,SummerDesignDay
8,13.706147375533054
10,201786990.66085274
878,15425606.909406914
2,1, 7,21, 0, 3,40.00,50.00,SummerDesignDay
8,13.682651961920304
10,201472708.00138418
878,15427032.39827384
2,1, 7,21, 0, 3,50.00,60.00,SummerDesignDay
8,13.659136670643687
10,201157515.98193387
878,15432589.287625926
2,1, 7,21, 0, 3, 0.00,60.00,SummerDesignDay
1112,23.1164711117416
1152,22.19577515897018
1192,23.372731790547623
1232,23.861756067429906
1272,23.662569432516038
1312,21.90357459724125
1352,23.99819145793475
1392,22.30835675663758
1432,22.229389415658379
1472,22.92055136936537
1512,22.69460452029679
1552,21.416888291829907
1592,21.57933912557353
1632,21.135961765550524
1672,21.506676330737567
1712,18.197160020871736
1752,22.544453396181074
1792,23.121145801855794
1832,23.475416209017309
1872,21.78674681733209
2,1, 7,21, 0, 4, 0.00,10.00,SummerDesignDay
8,13.63560137410855
10,199408307.58808566
878,15153376.065457782
2,1, 7,21, 0, 4,10.00,20.00,SummerDesignDay
8,13.612040802606578
10,199092188.9350224
878,3191620.145619416
2,1, 7,21, 0, 4,20.00,30.00,SummerDesignDay
8,13.58846620506876
10,198775559.7350251
878,12406523.919749994
2,1, 7,21, 0, 4,30.00,40.00,SummerDesignDay
8,13.56487178447336
10,198462952.303769
878,15101451.296062619
2,1, 7,21, 0, 4,40.00,50.00,SummerDesignDay
8,13.541257354069103
10,198144433.83265076
878,15144839.284850216
2,1, 7,21, 0, 4,50.00,60.00,SummerDesignDay
8,13.517617463812285
10,197828225.90791146
878,12000.0
2,1, 7,21, 0, 4, 0.00,60.00,SummerDesignDay
1112,22.778737504798597
1152,22.048153630150606
1192,23.264006505515444
1232,23.725858763744186
1272,23.436265551178967
1312,21.59310894382662
1352,23.998283847634054
1392,22.062351881818619
1432,21.989788956429778
1472,22.68193552408671
1512,22.497772061991485
1552,21.27205379535944
1592,21.269178875657216
1632,21.000549161883254
1672,21.379109013507294
1712,18.062235981405207
1752,22.325566744207408
1792,23.02204189011722
1832,23.43132135942071
1872,21.680215517254355
2,1, 7,21, 0, 5, 0.00,10.00,SummerDesignDay
8,13.50185415824011
10,197473484.11375127
878,15093387.675945839
2,1, 7,21, 0, 5,10.00,20.00,SummerDesignDay
8,13.486076034032447
10,197655447.76581494
878,15132087.97916612
2,1, 7,21, 0, 5,20.00,30.00,SummerDesignDay
8,13.470289340350983
10,197445457.08480499
878,12000.0
2,1, 7,21, 0, 5,30.00,40.00,SummerDesignDay
8,13.454493322631063
10,197510227.08688186
878,15086877.105950978
2,1, 7,21, 0, 5,40.00,50.00,SummerDesignDay
8,13.438688835118548
10,197547097.85178939
878,15118250.798181655
2,1, 7,21, 0, 5,50.00,60.00,SummerDesignDay
8,13.422888173889437
10,197591229.77568553
878,350181.56306021087
2,1, 7,21, 0, 5, 0.00,60.00,SummerDesignDay
1112,22.699276235334368
1152,21.9609299530055
1192,23.371275239114909
1232,23.59345176377971
1272,23.23022066434562
1312,21.3697720026297
1352,24.00053380314533
1392,21.840567608666534
1432,21.778469863920085
1472,22.470005189896829
1512,22.411037961853567
1552,21.19161862403377
1592,21.12702495373954
1632,20.87774055065531
1672,21.318533049661725
1712,18.002464597005099
1752,22.148675364549097
1792,23.032167176192684
1832,23.36878607065729
1872,21.583802166733496
2,1, 7,21, 0, 6, 0.00,10.00,SummerDesignDay
8,13.438688835118548
10,197963062.8052751
878,15118727.188044306
2,1, 7,21, 0, 6,10.00,20.00,SummerDesignDay
8,13.454493322631063
10,198366720.9179859
878,15426209.661097462
2,1, 7,21, 0, 6,20.00,30.00,SummerDesignDay
8,13.470289340350983
10,198767637.1194294
878,15431831.819697617
2,1, 7,21, 0, 6,30.00,40.00,SummerDesignDay
8,13.486076034032447
10,199165017.03955148
878,15437354.574273758
2,1, 7,21, 0, 6,40.00,50.00,SummerDesignDay
8,13.50185415824011
10,199557337.82780636
878,15442440.217236627
2,1, 7,21, 0, 6,50.00,60.00,SummerDesignDay
8,13.517617463812285
10,199943364.6956831
878,15447157.8545154
2,1, 7,21, 0, 6, 0.00,60.00,SummerDesignDay
1112,23.12540179204055
1152,22.049839842613428
1192,24.194250361819724
1232,23.474172818504714
1272,23.12883309792285
1312,21.39919988833915
1352,23.997762994425288
1392,21.70735322492192
1432,21.65651438806634
1472,22.345286371339627
1512,22.343066838861167
1552,21.18561839492024
1592,21.00850063873472
1632,20.77612226965145
1672,21.325731117763586
1712,18.092966376941218
1752,22.01414006707128
1792,23.373314542316526
1832,23.32571020850583
1872,21.495226897484984
2,1, 7,21, 0, 7, 0.00,10.00,SummerDesignDay
8,13.572736920571789
10,202183993.94346098
878,14975207.005984519
2,1, 7,21, 0, 7,10.00,20.00,SummerDesignDay
8,13.627748229152554
10,202985677.0968606
878,14378751.959775856
2,1, 7,21, 0, 7,20.00,30.00,SummerDesignDay
8,13.682651961920304
10,203794228.0208874
878,16150016.204290659
2,1, 7,21, 0, 7,30.00,40.00,SummerDesignDay
8,13.737448093244995
10,204556909.19942016
878,27261118.75836411
2,1, 7,21, 0, 7,40.00,50.00,SummerDesignDay
8,13.792137011831216
10,205324761.8479354
878,19061855.00892448
2,1, 7,21, 0, 7,50.00,60.00,SummerDesignDay
8,13.846719282840333
10,206073201.63330067
878,16124733.604253689
2,1, 7,21, 0, 7, 0.00,60.00,SummerDesignDay
1112,23.542202657724876
1152,22.28736713349355
1192,23.245287231827317
1232,23.3806325231393
1272,23.209873795916314
1312,21.60896756371115
1352,23.997826008208848
1392,21.6529372490603
1432,21.61119305813568
1472,22.29682363829951
1512,22.300665185065204
1552,21.07563284215245
1592,20.911959396408887
1632,20.749709673880564
1672,21.25225854404598
1712,18.354197129295419
1752,21.954784213601017
1792,23.501937296214256
1832,23.375268377365683
1872,21.46481548200637
2,1, 7,21, 0, 8, 0.00,10.00,SummerDesignDay
8,13.978831900527043
10,223500073.19417877
878,196557307.05601735
2,1, 7,21, 0, 8,10.00,20.00,SummerDesignDay
8,14.110321014287419
10,224332768.78944377
878,142609798.28078438
2,1, 7,21, 0, 8,20.00,30.00,SummerDesignDay
8,14.241191509616986
10,227718841.8450593
878,29182336.23297466
2,1, 7,21, 0, 8,30.00,40.00,SummerDesignDay
8,14.371447531304272
10,231091570.14970965
878,19607548.797151276
2,1, 7,21, 0, 8,40.00,50.00,SummerDesignDay
8,14.501093766564925
10,237121505.6398454
878,31589677.63862757
2,1, 7,21, 0, 8,50.00,60.00,SummerDesignDay
8,14.630134792273804
10,241643674.5474912
878,17011077.905365
2,1, 7,21, 0, 8, 0.00,60.00,SummerDesignDay
1112,23.86874008873689
1152,22.713539534121258
1192,23.76599123301742
1232,23.309501420204215
1272,23.584426480287303
1312,22.064629822648674
1352,23.997733847561269
1392,21.610994804345343
1432,21.5789825556045
1472,22.253296600487059
1512,22.282309621289973
1552,21.976116282184717
1592,20.812396653215804
1632,20.75598589698649
1672,21.22308811124081
1712,19.938412284600326
1752,21.932064367006885
1792,23.52219185645913
1832,23.465791928379319
1872,21.45161191235499
2,1, 7,21, 0, 9, 0.00,10.00,SummerDesignDay
8,14.773641492809972
10,336095703.97797796
878,178253049.88901926
2,1, 7,21, 0, 9,10.00,20.00,SummerDesignDay
8,14.91640948124148
10,339149727.97170159
878,167313373.3665477
2,1, 7,21, 0, 9,20.00,30.00,SummerDesignDay
8,15.05843890714102
10,344589180.3227408
878,38747726.7670321
2,1, 7,21, 0, 9,30.00,40.00,SummerDesignDay
8,15.199735893563798
10,359684720.1181074
878,39629424.94931911
2,1, 7,21, 0, 9,40.00,50.00,SummerDesignDay
8,15.340306256439395
10,362375388.4584869
878,53746396.785147819
2,1, 7,21, 0, 9,50.00,60.00,SummerDesignDay
8,15.48015101768072
10,371391529.52120158
878,40459666.87707897
2,1, 7,21, 0, 9, 0.00,60.00,SummerDesignDay
1112,23.890949488031486
1152,23.76148521498534
1192,23.99864794973753
1232,23.900555847371277
1272,23.99165823425635
1312,23.647944951879116
1352,23.998058215342039
1392,22.81442794237998
1432,22.877219813993844
1472,23.40199070232011
1512,23.070567240336925
1552,22.366230689095599
1592,20.720009581842203
1632,21.892314350406424
1672,21.979248645839303
1712,21.935001704683385
1752,22.003688902623627
1792,23.59156779468256
1832,23.55105222219899
1872,21.421477587646124
2,1, 7,21, 0,10, 0.00,10.00,SummerDesignDay
8,15.60467292907716
10,476045537.9117103
878,38154002.51133072
2,1, 7,21, 0,10,10.00,20.00,SummerDesignDay
8,15.72862731650033
10,487077113.15198609
878,45847833.67584046
2,1, 7,21, 0,10,20.00,30.00,SummerDesignDay
8,15.852017409284228
10,496990957.6884458
878,47456515.59926544
2,1, 7,21, 0,10,30.00,40.00,SummerDesignDay
8,15.974848118364367
10,504676109.1307533
878,38055626.81473243
2,1, 7,21, 0,10,40.00,50.00,SummerDesignDay
8,16.097123145563505
10,517934400.30853179
878,38095849.00704555
2,1, 7,21, 0,10,50.00,60.00,SummerDesignDay
8,16.218846351168599
10,527171076.0692241
878,48953296.98711659
2,1, 7,21, 0,10, 0.00,60.00,SummerDesignDay
1112,23.88493466099735
1152,23.998817000864773
1192,23.998330289753495
1232,23.99971975077224
1272,23.99991054768603
1312,23.999716102651037
1352,23.99804659031071
1392,23.91711257465309
1432,23.937228639376458
1472,23.99936318654319
1512,23.979834911264406
1552,22.86582537748188
1592,21.53234834380609
1632,22.00020580354138
1672,22.802290136884925
1712,22.444154014256016
1752,22.00007592075823
1792,23.52191312051548
1832,23.46479396806949
1872,21.28094381372651
2,1, 7,21, 0,11, 0.00,10.00,SummerDesignDay
8,16.325793027093189
10,545547513.5263479
878,47614637.32042752
2,1, 7,21, 0,11,10.00,20.00,SummerDesignDay
8,16.432322158488288
10,549924220.9494263
878,43872351.41698572
2,1, 7,21, 0,11,20.00,30.00,SummerDesignDay
8,16.538424180249178
10,555432586.996949
878,57311105.3810573
2,1, 7,21, 0,11,30.00,40.00,SummerDesignDay
8,16.644108396469087
10,559621799.5286328
878,41179553.12498937
2,1, 7,21, 0,11,40.00,50.00,SummerDesignDay
8,16.749376736593655
10,563966759.3633136
878,54439975.143909949
2,1, 7,21, 0,11,50.00,60.00,SummerDesignDay
8,16.854232613237156
10,568053722.381829
878,46678167.67147117
2,1, 7,21, 0,11, 0.00,60.00,SummerDesignDay
1112,23.855584545737629
1152,23.998136202571
1192,23.997685237490047
1232,23.999541955963548
1272,23.99988001975397
1312,23.999270303368886
1352,23.99773530395738
1392,23.999895919353567
1432,23.999872780242574
1472,23.999715173476
1512,23.99976587975515
1552,23.12094420709147
1592,21.99008996092172
1632,22.06811242987094
1672,23.229877298338879
1712,23.54667934174944
1752,22.00059307415054
1792,23.436687563276874
1832,23.412112206402388
1872,21.295664647758327
2,1, 7,21, 0,12, 0.00,10.00,SummerDesignDay
8,16.92390823520069
10,578620992.7348825
878,44711038.79531357
2,1, 7,21, 0,12,10.00,20.00,SummerDesignDay
8,16.99340178950456
10,582511973.2307123
878,55485205.81387572
2,1, 7,21, 0,12,20.00,30.00,SummerDesignDay
8,17.06272006743463
10,585700249.7774319
878,40784657.60048819
2,1, 7,21, 0,12,30.00,40.00,SummerDesignDay
8,17.131853229172639
10,588889930.5541133
878,53349263.98435589
2,1, 7,21, 0,12,40.00,50.00,SummerDesignDay
8,17.200807172194087
10,592067860.085456
878,46761482.5830311
2,1, 7,21, 0,12,50.00,60.00,SummerDesignDay
8,17.269582116758607
10,595073243.4001327
878,43349523.57284267
2,1, 7,21, 0,12, 0.00,60.00,SummerDesignDay
1112,23.857290162838628
1152,23.997681429731459
1192,23.997470269172159
1232,23.99949399410035
1272,23.99994836172495
1312,23.999124092821078
1352,23.997796622915858
1392,23.999859786411169
1432,23.999830357971417
1472,23.99964301963368
1512,23.99957463582199
1552,23.299616435847726
1592,22.33003045994124
1632,22.232263888060698
1672,23.44238147270065
1712,23.9968334400961
1752,22.00046434620126
1792,23.24921844060162
1832,23.366439115412324
1872,21.374301185950924
2,1, 7,21, 0,13, 0.00,10.00,SummerDesignDay
8,17.32447360221357
10,598715932.8956933
878,57062831.17502311
2,1, 7,21, 0,13,10.00,20.00,SummerDesignDay
8,17.379251291230806
10,601167696.0601914
878,40954625.47048602
2,1, 7,21, 0,13,20.00,30.00,SummerDesignDay
8,17.433921312061729
10,603598793.3197132
878,53038591.68102818
2,1, 7,21, 0,13,30.00,40.00,SummerDesignDay
8,17.488473222557489
10,605875600.7591463
878,47504313.64731128
2,1, 7,21, 0,13,40.00,50.00,SummerDesignDay
8,17.542913447755134
10,608105842.6469771
878,43640789.54599311
2,1, 7,21, 0,13,50.00,60.00,SummerDesignDay
8,17.59724609886134
10,610174270.5956408
878,56978639.651363778
2,1, 7,21, 0,13, 0.00,60.00,SummerDesignDay
1112,23.858149620180716
1152,23.99761852897285
1192,23.997625272512349
1232,23.999301819528499
1272,24.00005711099699
1312,23.998876180523597
1352,23.997699708205834
1392,23.99978206461705
1432,23.99974643016525
1472,23.99951216512426
1512,23.999244222759648
1552,23.143346748147736
1592,22.978033256146956
1632,22.543282342685346
1672,23.52726275504459
1712,23.998797646446904
1752,21.99979428540011
1792,23.220497031543166
1832,23.33800891099673
1872,21.44653419530569
2,1, 7,21, 0,14, 0.00,10.00,SummerDesignDay
8,17.6311450462694
10,611422323.4523304
878,42426103.55929308
2,1, 7,21, 0,14,10.00,20.00,SummerDesignDay
8,17.665000449016245
10,612899276.2930352
878,59854249.990836028
2,1, 7,21, 0,14,20.00,30.00,SummerDesignDay
8,17.698812743128934
10,614194899.3164885
878,44919191.10791862
2,1, 7,21, 0,14,30.00,40.00,SummerDesignDay
8,17.732582050940107
10,615430012.5388243
878,54985332.755874339
2,1, 7,21, 0,14,40.00,50.00,SummerDesignDay
8,17.766307345121004
10,616617337.6719238
878,49693108.019332218
2,1, 7,21, 0,14,50.00,60.00,SummerDesignDay
8,17.79999023167558
10,617762975.6610742
878,50155482.183382589
2,1, 7,21, 0,14, 0.00,60.00,SummerDesignDay
1112,23.858437080496218
1152,23.99758162812795
1192,23.9977268257131
1232,23.99907874996885
1272,24.000081502653776
1312,23.99873448044856
1352,23.99764806433099
1392,23.999746536844556
1432,23.99970204301032
1472,23.999419221771566
1512,23.99910568653851
1552,23.202019857736916
1592,23.19487086226655
1632,22.728624312111653
1672,23.629347937866205
1712,23.998823601946
1752,22.041612019351239
1792,23.233080091861738
1832,23.328843909233798
1872,21.50207490555344
2,1, 7,21, 0,15, 0.00,10.00,SummerDesignDay
8,17.79999023167558
10,615603649.1409521
878,52839982.72472663
2,1, 7,21, 0,15,10.00,20.00,SummerDesignDay
8,17.79999023167558
10,615264116.7323476
878,41213526.26700144
2,1, 7,21, 0,15,20.00,30.00,SummerDesignDay
8,17.79999023167558
10,615090682.9849732
878,59347791.47766118
2,1, 7,21, 0,15,30.00,40.00,SummerDesignDay
8,17.79999023167558
10,614770772.4261131
878,41909294.079624768
2,1, 7,21, 0,15,40.00,50.00,SummerDesignDay
8,17.79999023167558
10,614372255.8602252
878,50676767.713328387
2,1, 7,21, 0,15,50.00,60.00,SummerDesignDay
8,17.79999023167558
10,613908051.9941268
878,50456694.64277503
2,1, 7,21, 0,15, 0.00,60.00,SummerDesignDay
1112,23.85817118735589
1152,23.997380487521587
1192,23.997470102552044
1232,23.998946028213795
1272,24.000056009548776
1312,23.998776960772444
1352,23.997712701049428
1392,23.999737837578264
1432,23.999694471824573
1472,23.999383969290937
1512,23.999294960603366
1552,23.5028249419024
1592,22.976737519604187
1632,23.06858886279646
1672,23.642442097845277
1712,23.999110787647898
1752,22.538864579871203
1792,23.222546784883936
1832,23.344201209258406
1872,21.542124848771065
2,1, 7,21, 0,16, 0.00,10.00,SummerDesignDay
8,17.759562446305357
10,619118271.3863534
878,39638608.16539116
2,1, 7,21, 0,16,10.00,20.00,SummerDesignDay
8,17.71907809634183
10,617291565.1823269
878,52969063.747980069
2,1, 7,21, 0,16,20.00,30.00,SummerDesignDay
8,17.67853788661001
10,615486508.1088278
878,43801363.11025258
2,1, 7,21, 0,16,30.00,40.00,SummerDesignDay
8,17.63791796367351
10,613604278.8744619
878,39475590.752959448
2,1, 7,21, 0,16,40.00,50.00,SummerDesignDay
8,17.59724609886134
10,611550430.2500197
878,53884131.32144208
2,1, 7,21, 0,16,50.00,60.00,SummerDesignDay
8,17.55650676726033
10,609513359.8405552
878,42897452.29437868
2,1, 7,21, 0,16, 0.00,60.00,SummerDesignDay
1112,23.857630037017214
1152,23.997305115085199
1192,23.997424464404465
1232,23.99883717154169
1272,24.000026313278228
1312,23.998872753477398
1352,23.997522210607426
1392,23.99972689619976
1432,23.999687220027807
1472,23.99934981855897
1512,23.999581894279478
1552,23.52348203280027
1592,22.612673206968414
1632,23.45619491677114
1672,23.625602563397338
1712,23.999091462609824
1752,23.284940785081138
1792,23.19394811995009
1832,23.39444141482986
1872,22.027263463148619
2,1, 7,21, 0,17, 0.00,10.00,SummerDesignDay
8,17.50209486331892
10,598751624.058978
878,36626230.609326239
2,1, 7,21, 0,17,10.00,20.00,SummerDesignDay
8,17.447570789624618
10,595895761.9858869
878,36357371.12749456
2,1, 7,21, 0,17,20.00,30.00,SummerDesignDay
8,17.392929544208135
10,593374635.7040396
878,39173081.058530058
2,1, 7,21, 0,17,30.00,40.00,SummerDesignDay
8,17.33818013976614
10,590750031.1492024
878,43847665.95677525
2,1, 7,21, 0,17,40.00,50.00,SummerDesignDay
8,17.283317298559309
10,588086776.1348963
878,42253469.39525945
2,1, 7,21, 0,17,50.00,60.00,SummerDesignDay
8,17.22833552437677
10,585368158.0857662
878,36315799.04739826
2,1, 7,21, 0,17, 0.00,60.00,SummerDesignDay
1112,23.856429300988397
1152,23.997773856267004
1192,23.997585897817645
1232,23.998730720295144
1272,23.99990249773335
1312,23.9989240366308
1352,23.99745142362832
1392,23.99966770636588
1432,23.999632446627137
1472,23.999253696195159
1512,23.99971764118617
1552,23.686917158363078
1592,22.499708761171154
1632,23.435230341030438
1672,23.430733918772874
1712,23.8700105384715
1752,23.71608296748249
1792,23.25070208467774
1832,23.461223974536155
1872,22.19475814511996
2,1, 7,21, 0,18, 0.00,10.00,SummerDesignDay
8,17.159453019160176
10,563112878.6393999
878,33277910.540844088
2,1, 7,21, 0,18,10.00,20.00,SummerDesignDay
8,17.090391773337136
10,559067738.8389363
878,17787453.673828763
2,1, 7,21, 0,18,20.00,30.00,SummerDesignDay
8,17.021151077964786
10,555538855.3598719
878,32935118.39529556
2,1, 7,21, 0,18,30.00,40.00,SummerDesignDay
8,16.951729380464653
10,551032603.6845298
878,32952584.430519403
2,1, 7,21, 0,18,40.00,50.00,SummerDesignDay
8,16.882126503829249
10,547664122.4607893
878,32972162.441994776
2,1, 7,21, 0,18,50.00,60.00,SummerDesignDay
8,16.812341807494034
10,544360668.4727478
878,22963873.430150156
2,1, 7,21, 0,18, 0.00,60.00,SummerDesignDay
1112,23.854727583802505
1152,23.998863566156769
1192,23.998297090964085
1232,23.99878743376964
1272,23.999867324305116
1312,23.999126870434809
1352,23.997415800273385
1392,23.999678990481177
1432,23.99965299891079
1472,23.999267942314714
1512,23.999692827498057
1552,23.840467875203648
1592,22.59597566743393
1632,23.438857731404146
1672,23.003550974267573
1712,23.313120447472696
1752,23.817233290187955
1792,23.32514549791777
1832,23.48117973689799
1872,22.28280194300224
2,1, 7,21, 0,19, 0.00,10.00,SummerDesignDay
8,16.707321072823203
10,520292986.9204612
878,27967286.9883556
2,1, 7,21, 0,19,10.00,20.00,SummerDesignDay
8,16.601881826644556
10,515570287.16645398
878,32895092.223348414
2,1, 7,21, 0,19,20.00,30.00,SummerDesignDay
8,16.496030555252849
10,511811347.163341
878,32919781.93735456
2,1, 7,21, 0,19,30.00,40.00,SummerDesignDay
8,16.389760181474104
10,499207644.226836
878,26060174.035461867
2,1, 7,21, 0,19,40.00,50.00,SummerDesignDay
8,16.283067654262039
10,495036941.0870072
878,24931343.206086074
2,1, 7,21, 0,19,50.00,60.00,SummerDesignDay
8,16.17595057957811
10,490549501.0216136
878,32896426.343365939
2,1, 7,21, 0,19, 0.00,60.00,SummerDesignDay
1112,23.873792683421
1152,23.99942165504331
1192,23.999432447187475
1232,23.999144242131693
1272,23.99985621381238
1312,23.999567093122395
1352,23.997678316505497
1392,23.999811721426366
1432,23.999802083749974
1472,23.999535109104888
1512,23.99951575764507
1552,23.58253140014465
1592,22.94817554294777
1632,23.54494333951888
1672,22.7456674971987
1712,22.124423144958596
1752,23.605730763320137
1792,23.509338091038687
1832,23.52930041675877
1872,22.923090673606898
2,1, 7,21, 0,20, 0.00,10.00,SummerDesignDay
8,16.097123145563505
10,454638835.7874583
878,33982233.28209509
2,1, 7,21, 0,20,10.00,20.00,SummerDesignDay
8,16.018070242471564
10,448851156.29268398
878,34110006.96085298
2,1, 7,21, 0,20,20.00,30.00,SummerDesignDay
8,15.938779752340516
10,439703500.47638967
878,34110571.62686892
2,1, 7,21, 0,20,30.00,40.00,SummerDesignDay
8,15.85926152575189
10,435219150.44310048
878,34111859.50195154
2,1, 7,21, 0,20,40.00,50.00,SummerDesignDay
8,15.779503718563929
10,429347898.28936639
878,33324924.46771423
2,1, 7,21, 0,20,50.00,60.00,SummerDesignDay
8,15.699515709672767
10,424465585.48854407
878,29465056.267212247
2,1, 7,21, 0,20, 0.00,60.00,SummerDesignDay
1112,23.883273732108603
1152,23.999507776590549
1192,23.99986314520575
1232,23.99967159952901
1272,23.999883626086875
1312,23.999859667934897
1352,23.99803590398361
1392,23.99991232275818
1432,23.99991562786093
1472,23.99981342316813
1512,23.999235028761857
1552,23.138913559613746
1592,23.375849713415886
1632,23.461673559849179
1672,23.10169151185727
1712,20.510487279359454
1752,23.63111633395455
1792,23.60774037299626
1832,23.575471683322335
1872,23.53027251422596
2,1, 7,21, 0,21, 0.00,10.00,SummerDesignDay
8,15.63389147320404
10,410021278.1231362
878,42019441.286737609
2,1, 7,21, 0,21,10.00,20.00,SummerDesignDay
8,15.56810827419793
10,405374249.125181
878,36510501.8887304
2,1, 7,21, 0,21,20.00,30.00,SummerDesignDay
8,15.502170882753524