Program Version,EnergyPlus, Version 8.9.0-eba93e8e1b, YMD=2019.04.04 18:00
1,5,Environment Title[],Latitude[deg],Longitude[deg],Time Zone[],Elevation[m]
2,8,Day of Simulation[],Month[],Day of Month[],DST Indicator[1=yes 0=no],Hour[],StartMinute[],EndMinute[],DayType
3,5,Cumulative Day of Simulation[],Month[],Day of Month[],DST Indicator[1=yes 0=no],DayType  ! When Daily Report Variables Requested
4,2,Cumulative Days of Simulation[],Month[]  ! When Monthly Report Variables Requested
5,1,Cumulative Days of Simulation[] ! When Run Period Report Variables Requested
6,1,Calendar Year of Simulation[] ! When Annual Report Variables Requested
7,9,Environment,Site Outdoor Air Drybulb Temperature [C] !Monthly [Value,Min,Day,Hour,Minute,Max,Day,Hour,Minute]
8,1,Environment,Site Outdoor Air Wetbulb Temperature [C] !TimeStep
555,1,SP-WHOLEBUILDING-OFFICE SYS-3 FLR-1 SCH-A HPLCMT-CORE ZN,Zone Air Temperature [C] !Hourly
556,7,SP-WHOLEBUILDING-OFFICE SYS-3 FLR-1 SCH-A HPLCMT-CORE ZN,Zone Air Relative Humidity [%] !Daily [Value,Min,Hour,Minute,Max,Hour,Minute]
595,1,SP-WHOLEBUILDING-PENITENTIARY SYS-3 FLR-1 SCH-H HPLCMT-SOUTH ZN,Zone Air Temperature [C] !Hourly
596,7,SP-WHOLEBUILDING-PENITENTIARY SYS-3 FLR-1 SCH-H HPLCMT-SOUTH ZN,Zone Air Relative Humidity [%] !Daily [Value,Min,Hour,Minute,Max,Hour,Minute]
635,1,SP-WHOLEBUILDING-PERFORMING ARTS THEATRE SYS-3 FLR-1 SCH-C HPLCMT-EAST ZN,Zone Air Temperature [C] !Hourly
636,7,SP-WHOLEBUILDING-PERFORMING ARTS THEATRE SYS-3 FLR-1 SCH-C HPLCMT-EAST ZN,Zone Air Relative Humidity [%] !Daily [Value,Min,Hour,Minute,Max,Hour,Minute]
675,1,SP-WHOLEBUILDING-POLICE STATION SYS-3 FLR-1 SCH-H HPLCMT-NORTH ZN,Zone Air Temperature [C] !Hourly
676,7,SP-WHOLEBUILDING-POLICE STATION SYS-3 FLR-1 SCH-H HPLCMT-NORTH ZN,Zone Air Relative Humidity [%] !Daily [Value,Min,Hour,Minute,Max,Hour,Minute]
715,1,SP-WHOLEBUILDING-POST OFFICE SYS-3 FLR-1 SCH-A HPLCMT-WEST ZN,Zone Air Temperature [C] !Hourly
716,7,SP-WHOLEBUILDING-POST OFFICE SYS-3 FLR-1 SCH-A HPLCMT-WEST ZN,Zone Air Relative Humidity [%] !Daily [Value,Min,Hour,Minute,Max,Hour,Minute]
10,1,Electricity:Facility [J] !TimeStep
321,1,Gas:Facility [J] !TimeStep
End of Data Dictionary
1,FORT MCMURRAY AP ANN CLG .4% CONDNS DB=>MWB,  56.65,-111.22,  -7.00, 369.10
2,1, 7,21, 0, 1, 0.00,10.00,SummerDesignDay
8,14.218136923962174
10,51494911.22594592
321,22684194.85393228
2,1, 7,21, 0, 1,10.00,20.00,SummerDesignDay
8,14.171982153293495
10,51367547.52972941
321,22670960.89336065
2,1, 7,21, 0, 1,20.00,30.00,SummerDesignDay
8,14.125744780286427
10,51242364.2896162
321,22647325.575359476
2,1, 7,21, 0, 1,30.00,40.00,SummerDesignDay
8,14.079436086331978
10,51117175.3192023
321,22622629.919077498
2,1, 7,21, 0, 1,40.00,50.00,SummerDesignDay
8,14.033050387896898
10,50991648.05457065
321,22597416.016162319
2,1, 7,21, 0, 1,50.00,60.00,SummerDesignDay
8,13.986581233564835
10,50866149.80629228
321,25245245.394975526
2,1, 7,21, 0, 1, 0.00,60.00,SummerDesignDay
555,22.16757311155938
595,23.9957112126734
635,21.52735505028454
675,23.998282233610067
715,22.139845548355088
2,1, 7,21, 0, 2, 0.00,10.00,SummerDesignDay
8,13.95555882260429
10,50772742.75071047
321,27327204.64278153
2,1, 7,21, 0, 2,10.00,20.00,SummerDesignDay
8,13.924507755336454
10,50678320.74058677
321,27330995.613998593
2,1, 7,21, 0, 2,20.00,30.00,SummerDesignDay
8,13.893416042989206
10,50583804.85532879
321,27335188.39061455
2,1, 7,21, 0, 2,30.00,40.00,SummerDesignDay
8,13.862289589689029
10,50489620.06337491
321,27339393.40449422
2,1, 7,21, 0, 2,40.00,50.00,SummerDesignDay
8,13.831134407608739
10,50395834.5548914
321,27343593.954939978
2,1, 7,21, 0, 2,50.00,60.00,SummerDesignDay
8,13.799938415548118
10,50302954.845944847
321,27347789.444660356
2,1, 7,21, 0, 2, 0.00,60.00,SummerDesignDay
555,21.71912699553236
595,23.995815713268028
635,21.076180078101776
675,23.9983296567564
715,21.697076668388083
2,1, 7,21, 0, 3, 0.00,10.00,SummerDesignDay
8,13.776521671948676
10,50227561.99319995
321,27351979.2974269
2,1, 7,21, 0, 3,10.00,20.00,SummerDesignDay
8,13.753085235778466
10,50152635.19860769
321,23150556.16745881
2,1, 7,21, 0, 3,20.00,30.00,SummerDesignDay
8,13.729636002354969
10,50078802.44035724
321,22673708.777612155
2,1, 7,21, 0, 3,30.00,40.00,SummerDesignDay
8,13.706147375533054
10,50006449.643262248
321,22649760.85497701
2,1, 7,21, 0, 3,40.00,50.00,SummerDesignDay
8,13.682651961920304
10,49934747.645287368
321,22625118.05000911
2,1, 7,21, 0, 3,50.00,60.00,SummerDesignDay
8,13.659136670643687
10,49863554.99808808
321,22599956.722562754
2,1, 7,21, 0, 3, 0.00,60.00,SummerDesignDay
555,21.389874198032044
595,23.995888979871976
635,20.742622097515384
675,23.998353415951205
715,21.37412018445006
2,1, 7,21, 0, 4, 0.00,10.00,SummerDesignDay
8,13.63560137410855
10,49792810.14131713
321,24772230.600201485
2,1, 7,21, 0, 4,10.00,20.00,SummerDesignDay
8,13.612040802606578
10,49722273.487320009
321,27326942.492635136
2,1, 7,21, 0, 4,20.00,30.00,SummerDesignDay
8,13.58846620506876
10,49650905.23231345
321,27330583.36367172
2,1, 7,21, 0, 4,30.00,40.00,SummerDesignDay
8,13.56487178447336
10,49579102.53652621
321,27334768.46797295
2,1, 7,21, 0, 4,40.00,50.00,SummerDesignDay
8,13.541257354069103
10,49507335.84837608
321,27338973.886598797
2,1, 7,21, 0, 4,50.00,60.00,SummerDesignDay
8,13.517617463812285
10,49435506.456805478
321,27343174.910505758
2,1, 7,21, 0, 4, 0.00,60.00,SummerDesignDay
555,21.131724985346645
595,23.99593419091575
635,20.47846227804166
675,23.99836670011025
715,21.1213016559362
2,1, 7,21, 0, 5, 0.00,10.00,SummerDesignDay
8,13.50185415824011
10,49383120.3749018
321,27347370.931188659
2,1, 7,21, 0, 5,10.00,20.00,SummerDesignDay
8,13.486076034032447
10,49330644.508102688
321,27351561.37256611
2,1, 7,21, 0, 5,20.00,30.00,SummerDesignDay
8,13.470289340350983
10,49278155.19301512
321,23613578.77851379
2,1, 7,21, 0, 5,30.00,40.00,SummerDesignDay
8,13.454493322631063
10,49226425.10776583
321,22675983.563435638
2,1, 7,21, 0, 5,40.00,50.00,SummerDesignDay
8,13.438688835118548
10,49176037.09800092
321,22652185.85910918
2,1, 7,21, 0, 5,50.00,60.00,SummerDesignDay
8,13.422888173889437
10,49126108.30497611
321,22627597.920404894
2,1, 7,21, 0, 5, 0.00,60.00,SummerDesignDay
555,20.91586560994409
595,23.995982139966544
635,20.25531817721047
675,23.998374746787439
715,20.909442696209316
2,1, 7,21, 0, 6, 0.00,10.00,SummerDesignDay
8,13.438688835118548
10,49154474.642809148
321,22602488.918038317
2,1, 7,21, 0, 6,10.00,20.00,SummerDesignDay
8,13.454493322631063
10,49184084.03147051
321,24300876.97663391
2,1, 7,21, 0, 6,20.00,30.00,SummerDesignDay
8,13.470289340350983
10,49214405.52055356
321,27326709.404382297
2,1, 7,21, 0, 6,30.00,40.00,SummerDesignDay
8,13.486076034032447
10,49245070.8467136
321,27330173.340290306
2,1, 7,21, 0, 6,40.00,50.00,SummerDesignDay
8,13.50185415824011
10,49277036.718445468
321,27334349.15696866
2,1, 7,21, 0, 6,50.00,60.00,SummerDesignDay
8,13.517617463812285
10,49309117.92220766
321,27338554.97108863
2,1, 7,21, 0, 6, 0.00,60.00,SummerDesignDay
555,20.80708969187354
595,23.995990820093586
635,20.151801621165203
675,23.998348893757855
715,20.80476294555128
2,1, 7,21, 0, 7, 0.00,10.00,SummerDesignDay
8,13.572736920571789
10,49435898.96182747
321,27342756.461977714
2,1, 7,21, 0, 7,10.00,20.00,SummerDesignDay
8,13.627748229152554
10,49560166.196144659
321,27346953.00708584
2,1, 7,21, 0, 7,20.00,30.00,SummerDesignDay
8,13.682651961920304
10,49685603.97254365
321,27351144.03040928
2,1, 7,21, 0, 7,30.00,40.00,SummerDesignDay
8,13.737448093244995
10,49812407.33976833
321,24076322.483689589
2,1, 7,21, 0, 7,40.00,50.00,SummerDesignDay
8,13.792137011831216
10,49940146.08039367
321,22678197.447780685
2,1, 7,21, 0, 7,50.00,60.00,SummerDesignDay
8,13.846719282840333
10,50069517.99025646
321,22654599.838601047
2,1, 7,21, 0, 7, 0.00,60.00,SummerDesignDay
555,20.929378269922834
595,23.99595798028578
635,20.30867085721167
675,23.998283350717214
715,20.9331057783875
2,1, 7,21, 0, 8, 0.00,10.00,SummerDesignDay
8,13.978831900527043
10,58272495.487642507
321,56559632.00959872
2,1, 7,21, 0, 8,10.00,20.00,SummerDesignDay
8,14.110321014287419
10,58592102.36521305
321,23298216.271009756
2,1, 7,21, 0, 8,20.00,30.00,SummerDesignDay
8,14.241191509616986
10,58959930.5461266
321,23555064.62214304
2,1, 7,21, 0, 8,30.00,40.00,SummerDesignDay
8,14.371447531304272
10,59281997.62305944
321,27547853.378701126
2,1, 7,21, 0, 8,40.00,50.00,SummerDesignDay
8,14.501093766564925
10,59622419.19620299
321,27814441.8640672
2,1, 7,21, 0, 8,50.00,60.00,SummerDesignDay
8,14.630134792273804
10,59931631.08006702
321,27817729.87233434
2,1, 7,21, 0, 8, 0.00,60.00,SummerDesignDay
555,22.877598324353035
595,23.996686083934305
635,20.91743496707277
675,23.998559373134627
715,22.727952324390345
2,1, 7,21, 0, 9, 0.00,10.00,SummerDesignDay
8,14.773641492809972
10,90946711.0199314
321,42569412.29519408
2,1, 7,21, 0, 9,10.00,20.00,SummerDesignDay
8,14.91640948124148
10,97951504.76105538
321,33014126.979390894
2,1, 7,21, 0, 9,20.00,30.00,SummerDesignDay
8,15.05843890714102
10,98226631.83313191
321,32946970.55488511
2,1, 7,21, 0, 9,30.00,40.00,SummerDesignDay
8,15.199735893563798
10,99002980.95648194
321,32828554.82487237
2,1, 7,21, 0, 9,40.00,50.00,SummerDesignDay
8,15.340306256439395
10,100433473.88584526
321,33289898.060725985
2,1, 7,21, 0, 9,50.00,60.00,SummerDesignDay
8,15.48015101768072
10,102364524.31633394
321,32839376.57882171
2,1, 7,21, 0, 9, 0.00,60.00,SummerDesignDay
555,23.963122320744277
595,24.001411821396827
635,23.376006901018717
675,23.998799462644099
715,23.944221603962803
2,1, 7,21, 0,10, 0.00,10.00,SummerDesignDay
8,15.60467292907716
10,119110822.94421125
321,31026855.878973355
2,1, 7,21, 0,10,10.00,20.00,SummerDesignDay
8,15.72862731650033
10,119780349.36345029
321,30364044.608199609
2,1, 7,21, 0,10,20.00,30.00,SummerDesignDay
8,15.852017409284228
10,120570521.0727867
321,30358777.80311757
2,1, 7,21, 0,10,30.00,40.00,SummerDesignDay
8,15.974848118364367
10,121174716.05991329
321,30353389.71573295
2,1, 7,21, 0,10,40.00,50.00,SummerDesignDay
8,16.097123145563505
10,121670040.15327367
321,30347951.07288134
2,1, 7,21, 0,10,50.00,60.00,SummerDesignDay
8,16.218846351168599
10,122121738.91613776
321,30342463.0994169
2,1, 7,21, 0,10, 0.00,60.00,SummerDesignDay
555,23.998662360229007
595,24.111423382962874
635,23.999273676474688
675,23.99819575170991
715,23.998642700043633
2,1, 7,21, 0,11, 0.00,10.00,SummerDesignDay
8,16.325793027093189
10,123351490.46447957
321,34483929.538390319
2,1, 7,21, 0,11,10.00,20.00,SummerDesignDay
8,16.432322158488288
10,123821548.00574401
321,34869387.75048812
2,1, 7,21, 0,11,20.00,30.00,SummerDesignDay
8,16.538424180249178
10,124174586.4042415
321,37229032.75315874
2,1, 7,21, 0,11,30.00,40.00,SummerDesignDay
8,16.644108396469087
10,124499873.88611351
321,41965600.77411288
2,1, 7,21, 0,11,40.00,50.00,SummerDesignDay
8,16.749376736593655
10,124787665.3162067
321,41977567.66936289
2,1, 7,21, 0,11,50.00,60.00,SummerDesignDay
8,16.854232613237156
10,125095211.88499668
321,41991216.38820589
2,1, 7,21, 0,11, 0.00,60.00,SummerDesignDay
555,23.998702237288528
595,24.26399906343171
635,23.999006471575059
675,23.99842247485555
715,23.998718269660299
2,1, 7,21, 0,12, 0.00,10.00,SummerDesignDay
8,16.92390823520069
10,125343538.30352015
321,36966398.48821332
2,1, 7,21, 0,12,10.00,20.00,SummerDesignDay
8,16.99340178950456
10,125626410.27612172
321,35282263.934868339
2,1, 7,21, 0,12,20.00,30.00,SummerDesignDay
8,17.06272006743463
10,125867702.38959699
321,35273478.19701779
2,1, 7,21, 0,12,30.00,40.00,SummerDesignDay
8,17.131853229172639
10,126107081.0383448
321,35264392.22096589
2,1, 7,21, 0,12,40.00,50.00,SummerDesignDay
8,17.200807172194087
10,126322649.7206594
321,35255160.08272879
2,1, 7,21, 0,12,50.00,60.00,SummerDesignDay
8,17.269582116758607
10,126528109.05381465
321,37271730.253254909
2,1, 7,21, 0,12, 0.00,60.00,SummerDesignDay
555,24.001953016812498
595,24.462651280213469
635,23.998688661954306
675,24.010808366108696
715,23.998552577911327
2,1, 7,21, 0,13, 0.00,10.00,SummerDesignDay
8,17.32447360221357
10,126796114.94340381
321,47574670.44710246
2,1, 7,21, 0,13,10.00,20.00,SummerDesignDay
8,17.379251291230806
10,126976355.79835533
321,47517082.89884841
2,1, 7,21, 0,13,20.00,30.00,SummerDesignDay
8,17.433921312061729
10,127103184.98556651
321,36715798.08151305
2,1, 7,21, 0,13,30.00,40.00,SummerDesignDay
8,17.488473222557489
10,127229327.6680003
321,36706573.69632722
2,1, 7,21, 0,13,40.00,50.00,SummerDesignDay
8,17.542913447755134
10,127347142.40523465
321,36695731.71131703
2,1, 7,21, 0,13,50.00,60.00,SummerDesignDay
8,17.59724609886134
10,127461528.45489058
321,36684577.412471789
2,1, 7,21, 0,13, 0.00,60.00,SummerDesignDay
555,23.99885757728775
595,24.699434271006394
635,23.998040884493049
675,24.115638253068626
715,23.998674771659343
2,1, 7,21, 0,14, 0.00,10.00,SummerDesignDay
8,17.6311450462694
10,127534312.94570469
321,46323802.51663187
2,1, 7,21, 0,14,10.00,20.00,SummerDesignDay
8,17.665000449016245
10,127608264.76234536
321,48146741.30471454
2,1, 7,21, 0,14,20.00,30.00,SummerDesignDay
8,17.698812743128934
10,127694688.47896545
321,39313580.91630702
2,1, 7,21, 0,14,30.00,40.00,SummerDesignDay
8,17.732582050940107
10,127779133.45784803
321,36709508.0771776
2,1, 7,21, 0,14,40.00,50.00,SummerDesignDay
8,17.766307345121004
10,127882001.6895596
321,36698850.08318563
2,1, 7,21, 0,14,50.00,60.00,SummerDesignDay
8,17.79999023167558
10,127985833.85800405
321,36687768.47901851
2,1, 7,21, 0,14, 0.00,60.00,SummerDesignDay
555,23.998693035313378
595,24.97971003049743
635,23.997558505860927
675,24.255132000343509
715,23.998745909414216
2,1, 7,21, 0,15, 0.00,10.00,SummerDesignDay
8,17.79999023167558
10,128217629.83512362
321,43065278.59667009
2,1, 7,21, 0,15,10.00,20.00,SummerDesignDay
8,17.79999023167558
10,128230608.64613176
321,48138002.55690626
2,1, 7,21, 0,15,20.00,30.00,SummerDesignDay
8,17.79999023167558
10,128245282.45056471
321,42571037.86726453
2,1, 7,21, 0,15,30.00,40.00,SummerDesignDay
8,17.79999023167558
10,128259011.31111647
321,36712191.4501179
2,1, 7,21, 0,15,40.00,50.00,SummerDesignDay
8,17.79999023167558
10,128499200.29940154
321,36701935.474824849
2,1, 7,21, 0,15,50.00,60.00,SummerDesignDay
8,17.79999023167558
10,128508415.97178787
321,36690939.10978345
2,1, 7,21, 0,15, 0.00,60.00,SummerDesignDay
555,24.162833778900667
595,25.177034130890307
635,24.015744749723394
675,24.366698600335725
715,24.132820340750837
2,1, 7,21, 0,16, 0.00,10.00,SummerDesignDay
8,17.759562446305357
10,128442976.50592429
321,39809123.39029005
2,1, 7,21, 0,16,10.00,20.00,SummerDesignDay
8,17.71907809634183
10,128373423.75743844
321,48130309.186015959
2,1, 7,21, 0,16,20.00,30.00,SummerDesignDay
8,17.67853788661001
10,128300231.8820016
321,45825498.37629968
2,1, 7,21, 0,16,30.00,40.00,SummerDesignDay
8,17.63791796367351
10,128231739.11419858
321,36714622.09516494
2,1, 7,21, 0,16,40.00,50.00,SummerDesignDay
8,17.59724609886134
10,128162050.54408659
321,36704988.74422872
2,1, 7,21, 0,16,50.00,60.00,SummerDesignDay
8,17.55650676726033
10,127991974.0856443
321,36694090.40039875
2,1, 7,21, 0,16, 0.00,60.00,SummerDesignDay
555,24.324224047094416
595,25.194339510129486
635,24.057981878384795
675,24.42121571422999
715,24.241318886013518
2,1, 7,21, 0,17, 0.00,10.00,SummerDesignDay
8,17.50209486331892
10,127992914.28783529
321,34538580.70254024
2,1, 7,21, 0,17,10.00,20.00,SummerDesignDay
8,17.447570789624618
10,127830707.78275354
321,37154071.86970134
2,1, 7,21, 0,17,20.00,30.00,SummerDesignDay
8,17.392929544208135
10,127616667.33490856
321,40430416.18628458
2,1, 7,21, 0,17,30.00,40.00,SummerDesignDay
8,17.33818013976614
10,127490732.50300952
321,40439301.50266074
2,1, 7,21, 0,17,40.00,50.00,SummerDesignDay
8,17.283317298559309
10,127385833.06834911
321,40449090.12122282
2,1, 7,21, 0,17,50.00,60.00,SummerDesignDay
8,17.22833552437677
10,127278357.88850856
321,38898526.68384404
2,1, 7,21, 0,17, 0.00,60.00,SummerDesignDay
555,24.369926017738768
595,25.01492642855907
635,23.99701578673701
675,24.460690535108939
715,24.188825139194198
2,1, 7,21, 0,18, 0.00,10.00,SummerDesignDay
8,17.159453019160176
10,124717505.43665168
321,31716496.51041389
2,1, 7,21, 0,18,10.00,20.00,SummerDesignDay
8,17.090391773337136
10,124391406.88678618
321,31390978.810779036
2,1, 7,21, 0,18,20.00,30.00,SummerDesignDay
8,17.021151077964786
10,124199019.83898133
321,31385336.67320254
2,1, 7,21, 0,18,30.00,40.00,SummerDesignDay
8,16.951729380464653
10,123860023.00384625
321,31379781.770952286
2,1, 7,21, 0,18,40.00,50.00,SummerDesignDay
8,16.882126503829249
10,123655389.56640573
321,31374179.635416956
2,1, 7,21, 0,18,50.00,60.00,SummerDesignDay
8,16.812341807494034
10,123449016.99729333
321,31368525.158097004
2,1, 7,21, 0,18, 0.00,60.00,SummerDesignDay
555,24.074767354011724
595,24.779331211705384
635,23.996909358216017
675,24.300629209338984
715,24.00809441706105
2,1, 7,21, 0,19, 0.00,10.00,SummerDesignDay
8,16.707321072823203
10,103771983.61987467
321,28684102.03355909
2,1, 7,21, 0,19,10.00,20.00,SummerDesignDay
8,16.601881826644556
10,102818259.88819705
321,28350582.31003352
2,1, 7,21, 0,19,20.00,30.00,SummerDesignDay
8,16.496030555252849
10,102194687.24811888
321,28343962.426408039
2,1, 7,21, 0,19,30.00,40.00,SummerDesignDay
8,16.389760181474104
10,101408407.005121
321,29995648.49907813
2,1, 7,21, 0,19,40.00,50.00,SummerDesignDay
8,16.283067654262039
10,100797758.29757463
321,31338866.44524176
2,1, 7,21, 0,19,50.00,60.00,SummerDesignDay
8,16.17595057957811
10,100189358.6457354
321,31339953.89999487
2,1, 7,21, 0,19, 0.00,60.00,SummerDesignDay
555,23.999219057864285
595,24.52415367152858
635,23.997547027768304
675,24.041619746174509
715,23.99925166836746
2,1, 7,21, 0,20, 0.00,10.00,SummerDesignDay
8,16.097123145563505
10,81599592.84621024
321,29754877.591970505
2,1, 7,21, 0,20,10.00,20.00,SummerDesignDay
8,16.018070242471564
10,80808283.48570429
321,29591071.162705579
2,1, 7,21, 0,20,20.00,30.00,SummerDesignDay
8,15.938779752340516
10,80340747.81960185
321,29592744.00188232
2,1, 7,21, 0,20,30.00,40.00,SummerDesignDay
8,15.85926152575189
10,79845125.78665132
321,29594444.674031237
2,1, 7,21, 0,20,40.00,50.00,SummerDesignDay
8,15.779503718563929
10,79358127.37175612
321,29596141.043969357
2,1, 7,21, 0,20,50.00,60.00,SummerDesignDay
8,15.699515709672767
10,78873347.07998413
321,29597831.869048936
2,1, 7,21, 0,20, 0.00,60.00,SummerDesignDay
555,23.999762891101246
595,24.34573894599407
635,23.998911234252775
675,23.9977984998838
715,23.99978058360111
2,1, 7,21, 0,21, 0.00,10.00,SummerDesignDay
8,15.63389147320404
10,76262470.6032136
321,29599516.961123237
2,1, 7,21, 0,21,10.00,20.00,SummerDesignDay
8,15.56810827419793
10,75804372.85531333
321,27970321.8785307
2,1, 7,21, 0,21,20.00,30.00,SummerDesignDay
8,15.502170882753524
10,75389540.91568698
321,26326797.379015145
2,1, 7,21, 0,21,30.00,40.00,SummerDesignDay
8,15.436068032613852
10,74963078.46552095
321,26317971.447430996
2,1, 7,21, 0,21,40.00,50.00,SummerDesignDay
8,15.369804371206009
10,74535262.7273562
321,26308736.752103997
2,1, 7,21, 0,21,50.00,60.00,SummerDesignDay
8,15.303384603594449
10,74101756.11800383
321,26299378.557220829
2,1, 7,21, 0,21, 0.00,60.00,SummerDesignDay
555,23.999885385973085
595,24.23732748978135
635,23.999374665280187
675,23.99793683446289
715,23.999892595953655
2,1, 7,21, 0,22, 0.00,10.00,SummerDesignDay
8,15.236797685071274
10,55037987.35453345
321,25345008.5047015
2,1, 7,21, 0,22,10.00,20.00,SummerDesignDay
8,15.170047891787942
10,54913893.27947113
321,25224801.93106979
2,1, 7,21, 0,22,20.00,30.00,SummerDesignDay
8,15.103134826860483
10,54780774.62306812
321,25212243.97605377
2,1, 7,21, 0,22,30.00,40.00,SummerDesignDay
8,15.036063385178485
10,54644188.204928908
321,26719840.644145635
2,1, 7,21, 0,22,40.00,50.00,SummerDesignDay
8,14.968821767219835
10,54504567.53278007
321,28845790.081938924
2,1, 7,21, 0,22,50.00,60.00,SummerDesignDay
8,14.90141525878635
10,54361507.80309326
321,28847612.452737255
2,1, 7,21, 0,22, 0.00,60.00,SummerDesignDay
555,23.910507486401959
595,24.163914689443364
635,23.50744063568584
675,23.99803758902806
715,23.87399959292685
2,1, 7,21, 0,23, 0.00,10.00,SummerDesignDay
8,14.848873673278373
10,54243642.98233711
321,27477123.12394312
2,1, 7,21, 0,23,10.00,20.00,SummerDesignDay
8,14.796237168136719
10,54128054.10684428
321,27336987.386878056
2,1, 7,21, 0,23,20.00,30.00,SummerDesignDay
8,14.743494321455645
10,54019626.98305745
321,27341096.38786576
2,1, 7,21, 0,23,30.00,40.00,SummerDesignDay
8,14.690649975253665
10,53909424.025760609
321,27345292.03276489
2,1, 7,21, 0,23,40.00,50.00,SummerDesignDay
8,14.637704281233117
10,53797559.99175931
321,27349485.31075111
2,1, 7,21, 0,23,50.00,60.00,SummerDesignDay
8,14.584656914839757
10,53683824.266111489
321,25920525.030640238
2,1, 7,21, 0,23, 0.00,60.00,SummerDesignDay
555,23.410310874892457
595,24.067987119861
635,22.69139161418437
675,23.998135803244723
715,23.371348401753165
2,1, 7,21, 0,24, 0.00,10.00,SummerDesignDay
8,14.531507212058875
10,52378381.49766409
321,22686429.865772729
2,1, 7,21, 0,24,10.00,20.00,SummerDesignDay
8,14.47825496413355
10,52259388.372134197
321,22664120.803386619
2,1, 7,21, 0,24,20.00,30.00,SummerDesignDay
8,14.4249000133173
10,52019901.929611068
321,22639846.377363825
2,1, 7,21, 0,24,30.00,40.00,SummerDesignDay
8,14.371447531304272
10,51916601.41617775
321,22614994.921606784
2,1, 7,21, 0,24,40.00,50.00,SummerDesignDay
8,14.31788619902223
10,51762153.053322378
321,22589619.39463594
2,1, 7,21, 0,24,50.00,60.00,SummerDesignDay
8,14.264220970176066
10,51621774.671698469
321,26697901.968116225
2,1, 7,21, 0,24, 0.00,60.00,SummerDesignDay
555,22.757714213887124
595,23.99882358728769
635,22.074448019987988
675,23.99821341039514
715,22.726377728061988
3,1, 7,21, 0,SummerDesignDay
556,49.814660664746558,45.398593359576107,21,60,55.08128994156032, 6,30
596,60.3122366788184,59.28319816467159, 1,30,62.05819749595254,18,30
636,51.89425801909325,45.12558881863185,10,60,57.32320340763205, 6,30
676,48.26589732854158,46.44821204869872,24,40,51.2139376840287,16,60
716,49.898708618622098,45.40192382194312,21,50,55.0846449775434, 6,30
4,1, 7
7,22.2505,16.5,21, 5,60,28.9,21,14,60
1,FORT MCMURRAY AP ANN HTG 99.6% CONDNS DB,  56.65,-111.22,  -7.00, 369.10
2,1, 1,21, 0, 1, 0.00,10.00,WinterDesignDay
8,-36.2
10,45473662.73455676
321,213966160.009338
2,1, 1,21, 0, 1,10.00,20.00,WinterDesignDay
8,-36.2
10,45473662.58616306
321,214146347.3392563
2,1, 1,21, 0, 1,20.00,30.00,WinterDesignDay
8,-36.2
10,45473662.4379316
321,214286937.77780713
2,1, 1,21, 0, 1,30.00,40.00,WinterDesignDay
8,-36.2
10,45473662.43748036
321,214400822.41395123
2,1, 1,21, 0, 1,40.00,50.00,WinterDesignDay
8,-36.2
10,45473662.289441097
321,214486487.8373528
2,1, 1,21, 0, 1,50.00,60.00,WinterDesignDay
8,-36.2
10,45473662.14152563
321,214557968.2496751
2,1, 1,21, 0, 1, 0.00,60.00,WinterDesignDay
555,17.999901827616069
595,22.305526900334248
635,17.999999107177108
675,21.99845455563705
715,17.999955931146663
2,1, 1,21, 0, 2, 0.00,10.00,WinterDesignDay
8,-36.2
10,45473662.14124666
321,214041108.86595533
2,1, 1,21, 0, 2,10.00,20.00,WinterDesignDay
8,-36.2
10,45473661.993476498
321,214114521.54540605
2,1, 1,21, 0, 2,20.00,30.00,WinterDesignDay
8,-36.2
10,45473661.99326697
321,214188176.14566178
2,1, 1,21, 0, 2,30.00,40.00,WinterDesignDay
8,-36.2
10,45473661.84562037
321,214807143.7888658
2,1, 1,21, 0, 2,40.00,50.00,WinterDesignDay
8,-36.2
10,45473661.84546897
321,217343072.62653948
2,1, 1,21, 0, 2,50.00,60.00,WinterDesignDay
8,-36.2
10,45473661.84531872
321,217389917.81797133
2,1, 1,21, 0, 2, 0.00,60.00,WinterDesignDay
555,17.99992687334841
595,22.247930487916507
635,17.9999991610147
675,21.915083905309147
715,17.999970042782896
2,1, 1,21, 0, 3, 0.00,10.00,WinterDesignDay
8,-36.2
10,45473661.84517624
321,217428300.27917577
2,1, 1,21, 0, 3,10.00,20.00,WinterDesignDay
8,-36.2
10,45473660.96089825
321,217461878.90197966
2,1, 1,21, 0, 3,20.00,30.00,WinterDesignDay
8,-36.2
10,45473660.96089825
321,217492638.06722085
2,1, 1,21, 0, 3,30.00,40.00,WinterDesignDay
8,-36.2
10,45473660.96089825
321,217515937.0084756
2,1, 1,21, 0, 3,40.00,50.00,WinterDesignDay
8,-36.2
10,45473660.96089825
321,217537113.88571615
2,1, 1,21, 0, 3,50.00,60.00,WinterDesignDay
8,-36.2
10,45473660.96089825
321,217556437.37254364
2,1, 1,21, 0, 3, 0.00,60.00,WinterDesignDay
555,17.999943664205384
595,22.224858378411868
635,17.99997770528464
675,21.855371999915037
715,17.9999770679744
2,1, 1,21, 0, 4, 0.00,10.00,WinterDesignDay
8,-36.2
10,45473660.96089825
321,217573849.88495759
2,1, 1,21, 0, 4,10.00,20.00,WinterDesignDay
8,-36.2
10,45473660.96089825
321,217589568.51449839
2,1, 1,21, 0, 4,20.00,30.00,WinterDesignDay
8,-36.2
10,45473660.96089825
321,215324478.07720275
2,1, 1,21, 0, 4,30.00,40.00,WinterDesignDay
8,-36.2
10,45473660.96089825
321,214615824.02011556
2,1, 1,21, 0, 4,40.00,50.00,WinterDesignDay
8,-36.2
10,45473660.96089825
321,214616050.33094246
2,1, 1,21, 0, 4,50.00,60.00,WinterDesignDay
8,-36.2
10,45473660.96089825
321,214615461.0620315
2,1, 1,21, 0, 4, 0.00,60.00,WinterDesignDay
555,17.99995536676653
595,22.215143599322717
635,17.999978545695727
675,21.840356019676564
715,17.999980644291445
2,1, 1,21, 0, 5, 0.00,10.00,WinterDesignDay
8,-36.2
10,45473660.96089825
321,214614244.26411734
2,1, 1,21, 0, 5,10.00,20.00,WinterDesignDay
8,-36.2
10,45473660.96089825
321,214612430.78195153
2,1, 1,21, 0, 5,20.00,30.00,WinterDesignDay
8,-36.2
10,45473660.96089825
321,214610056.1350168
2,1, 1,21, 0, 5,30.00,40.00,WinterDesignDay
8,-36.2
10,45473660.96089825
321,214607126.36936335
2,1, 1,21, 0, 5,40.00,50.00,WinterDesignDay
8,-36.2
10,45473660.96089825
321,214603665.08215279
2,1, 1,21, 0, 5,50.00,60.00,WinterDesignDay
8,-36.2
10,45473660.96089825
321,214599696.47827254
2,1, 1,21, 0, 5, 0.00,60.00,WinterDesignDay
555,17.99996363027559
595,22.211404476523
635,17.999983042051914
675,21.83520717688842
715,17.999982478880239
2,1, 1,21, 0, 6, 0.00,10.00,WinterDesignDay
8,-36.2
10,45473660.96089825
321,217470948.66075946
2,1, 1,21, 0, 6,10.00,20.00,WinterDesignDay
8,-36.2
10,45473660.96089825
321,217644597.78070585
2,1, 1,21, 0, 6,20.00,30.00,WinterDesignDay
8,-36.2
10,45473660.96089825
321,217649932.64193846
2,1, 1,21, 0, 6,30.00,40.00,WinterDesignDay
8,-36.2
10,45473660.96089825
321,217655085.07434733
2,1, 1,21, 0, 6,40.00,50.00,WinterDesignDay
8,-36.2
10,45473660.96089825
321,217660032.93568997
2,1, 1,21, 0, 6,50.00,60.00,WinterDesignDay
8,-36.2
10,45473660.96089825
321,217664783.01859633
2,1, 1,21, 0, 6, 0.00,60.00,WinterDesignDay
555,17.9999695046692
595,22.20977726105549
635,17.999985770281623
675,21.83258825032011
715,17.999983426774539
2,1, 1,21, 0, 7, 0.00,10.00,WinterDesignDay
8,-36.2
10,45473660.96089825
321,281381280.1571442
2,1, 1,21, 0, 7,10.00,20.00,WinterDesignDay
8,-36.2
10,45473660.96089825
321,249271779.6584758
2,1, 1,21, 0, 7,20.00,30.00,WinterDesignDay
8,-36.2
10,45473660.96089825
321,222497696.3950558
2,1, 1,21, 0, 7,30.00,40.00,WinterDesignDay
8,-36.2
10,45473660.96089825
321,235862265.26313526
2,1, 1,21, 0, 7,40.00,50.00,WinterDesignDay
8,-36.2
10,45473660.96089825
321,227494849.8107196
2,1, 1,21, 0, 7,50.00,60.00,WinterDesignDay
8,-36.2
10,45473660.96089825
321,226053559.7241347
2,1, 1,21, 0, 7, 0.00,60.00,WinterDesignDay
555,19.949491593937656
595,22.225977079114818
635,17.999989661423475
675,21.846251401772848
715,19.95146038953058
2,1, 1,21, 0, 8, 0.00,10.00,WinterDesignDay
8,-36.2
10,53389545.37023013
321,306444297.16477897
2,1, 1,21, 0, 8,10.00,20.00,WinterDesignDay
8,-36.2
10,53389036.53452425
321,256289219.01292507
2,1, 1,21, 0, 8,20.00,30.00,WinterDesignDay
8,-36.2
10,53389036.53452425
321,229604547.74576453
2,1, 1,21, 0, 8,30.00,40.00,WinterDesignDay
8,-36.2
10,53389036.53452425
321,241550840.22011704
2,1, 1,21, 0, 8,40.00,50.00,WinterDesignDay
8,-36.2
10,53389036.53452425
321,233841523.65635783
2,1, 1,21, 0, 8,50.00,60.00,WinterDesignDay
8,-36.2
10,53389036.53452425
321,233420904.90299524
2,1, 1,21, 0, 8, 0.00,60.00,WinterDesignDay
555,21.94021523743561
595,22.31848387196639
635,19.952531099949949
675,21.93839231647765
715,21.941671045943058
2,1, 1,21, 0, 9, 0.00,10.00,WinterDesignDay
8,-36.2
10,83180993.29342951
321,238465559.57750426
2,1, 1,21, 0, 9,10.00,20.00,WinterDesignDay
8,-36.2
10,83180484.45772363
321,214865296.4901587
2,1, 1,21, 0, 9,20.00,30.00,WinterDesignDay
8,-36.2
10,83180484.45772363
321,215884590.3398164
2,1, 1,21, 0, 9,30.00,40.00,WinterDesignDay
8,-36.2
10,83180484.45772363
321,215783468.62580658
2,1, 1,21, 0, 9,40.00,50.00,WinterDesignDay
8,-36.2
10,83180485.79027204
321,213453796.58207203
2,1, 1,21, 0, 9,50.00,60.00,WinterDesignDay
8,-36.2
10,83180485.93788351
321,212730475.10526694
2,1, 1,21, 0, 9, 0.00,60.00,WinterDesignDay
555,21.999817272967439
595,22.526491743366724
635,21.960356716924634
675,22.139682273796198
715,21.999784878847068
2,1, 1,21, 0,10, 0.00,10.00,WinterDesignDay
8,-36.2
10,94685917.36753637
321,199221896.10015915
2,1, 1,21, 0,10,10.00,20.00,WinterDesignDay
8,-36.2
10,94687101.54402833
321,196112527.15010218
2,1, 1,21, 0,10,20.00,30.00,WinterDesignDay
8,-36.2
10,94685919.48179147
321,195732031.4075199
2,1, 1,21, 0,10,30.00,40.00,WinterDesignDay
8,-36.2
10,94685920.36671464
321,195269868.62263615
2,1, 1,21, 0,10,40.00,50.00,WinterDesignDay
8,-36.2
10,94685920.95065297
321,194906780.1648776
2,1, 1,21, 0,10,50.00,60.00,WinterDesignDay
8,-36.2
10,94687101.54402833
321,194620404.31174199
2,1, 1,21, 0,10, 0.00,60.00,WinterDesignDay
555,22.2048069989597
595,22.809187469150144
635,21.999999479324946
675,22.39020065205715
715,22.24315344553828
2,1, 1,21, 0,11, 0.00,10.00,WinterDesignDay
8,-36.2
10,94685923.80082229
321,207835799.1083744
2,1, 1,21, 0,11,10.00,20.00,WinterDesignDay
8,-36.2
10,94687101.54402833
321,203148984.1989098
2,1, 1,21, 0,11,20.00,30.00,WinterDesignDay
8,-36.2
10,94687101.54402833
321,194257182.80006186
2,1, 1,21, 0,11,30.00,40.00,WinterDesignDay
8,-36.2
10,94687101.54402833
321,194018922.5277088
2,1, 1,21, 0,11,40.00,50.00,WinterDesignDay
8,-36.2
10,94687101.54402833
321,205808092.8557775
2,1, 1,21, 0,11,50.00,60.00,WinterDesignDay
8,-36.2