Program Version,EnergyPlus, Version 8.9.0-eba93e8e1b, YMD=2019.04.04 18:00
1,5,Environment Title[],Latitude[deg],Longitude[deg],Time Zone[],Elevation[m]
2,8,Day of Simulation[],Month[],Day of Month[],DST Indicator[1=yes 0=no],Hour[],StartMinute[],EndMinute[],DayType
3,5,Cumulative Day of Simulation[],Month[],Day of Month[],DST Indicator[1=yes 0=no],DayType  ! When Daily Report Variables Requested
4,2,Cumulative Days of Simulation[],Month[]  ! When Monthly Report Variables Requested
5,1,Cumulative Days of Simulation[] ! When Run Period Report Variables Requested
6,1,Calendar Year of Simulation[] ! When Annual Report Variables Requested
7,9,Environment,Site Outdoor Air Drybulb Temperature [C] !Monthly [Value,Min,Day,Hour,Minute,Max,Day,Hour,Minute]
8,1,Environment,Site Outdoor Air Wetbulb Temperature [C] !TimeStep
555,1,SP-DINING AREA - OTHER-SPACE FUNCTION SYS-3 FLR-1 SCH-B HPLCMT-SOUTH ZN,Zone Air Temperature [C] !Hourly
556,7,SP-DINING AREA - OTHER-SPACE FUNCTION SYS-3 FLR-1 SCH-B HPLCMT-SOUTH ZN,Zone Air Relative Humidity [%] !Daily [Value,Min,Hour,Minute,Max,Hour,Minute]
595,1,SP-DINING AREA - SPACE DESIGNED TO ANSI/IES RP-28 (USED PRIMARILY BY RESIDENTS)-SPACE FUNCTION SYS-3 FLR-1 SCH-B HPLCMT-CORE ZN,Zone Air Temperature [C] !Hourly
596,7,SP-DINING AREA - SPACE DESIGNED TO ANSI/IES RP-28 (USED PRIMARILY BY RESIDENTS)-SPACE FUNCTION SYS-3 FLR-1 SCH-B HPLCMT-CORE ZN,Zone Air Relative Humidity [%] !Daily [Value,Min,Hour,Minute,Max,Hour,Minute]
635,1,SP-DRESSING/FITTING ROOM - PERFORMING ARTS THEATRE-SPACE FUNCTION SYS-3 FLR-1 SCH-C HPLCMT-EAST ZN,Zone Air Temperature [C] !Hourly
636,7,SP-DRESSING/FITTING ROOM - PERFORMING ARTS THEATRE-SPACE FUNCTION SYS-3 FLR-1 SCH-C HPLCMT-EAST ZN,Zone Air Relative Humidity [%] !Daily [Value,Min,Hour,Minute,Max,Hour,Minute]
675,1,SP-EMERGENCY VEHICLE GARAGE-SPACE FUNCTION SYS-4 FLR-1 SCH-H HPLCMT-NORTH ZN,Zone Air Temperature [C] !Hourly
676,7,SP-EMERGENCY VEHICLE GARAGE-SPACE FUNCTION SYS-4 FLR-1 SCH-H HPLCMT-NORTH ZN,Zone Air Relative Humidity [%] !Daily [Value,Min,Hour,Minute,Max,Hour,Minute]
715,1,SP-FOOD PREPARATION AREA-SPACE FUNCTION SYS-3 FLR-1 SCH-B HPLCMT-WEST ZN,Zone Air Temperature [C] !Hourly
716,7,SP-FOOD PREPARATION AREA-SPACE FUNCTION SYS-3 FLR-1 SCH-B HPLCMT-WEST ZN,Zone Air Relative Humidity [%] !Daily [Value,Min,Hour,Minute,Max,Hour,Minute]
10,1,Electricity:Facility [J] !TimeStep
321,1,Gas:Facility [J] !TimeStep
End of Data Dictionary
1,FORT MCMURRAY AP ANN CLG .4% CONDNS DB=>MWB,  56.65,-111.22,  -7.00, 369.10
2,1, 7,21, 0, 1, 0.00,10.00,SummerDesignDay
8,14.218136923962174
10,91947562.56460552
321,49228913.60084152
2,1, 7,21, 0, 1,10.00,20.00,SummerDesignDay
8,14.171982153293495
10,90967713.55381225
321,51415199.94410941
2,1, 7,21, 0, 1,20.00,30.00,SummerDesignDay
8,14.125744780286427
10,90504412.52897401
321,52138437.650652687
2,1, 7,21, 0, 1,30.00,40.00,SummerDesignDay
8,14.079436086331978
10,90419745.94074548
321,54004729.98257019
2,1, 7,21, 0, 1,40.00,50.00,SummerDesignDay
8,14.033050387896898
10,90336680.80496206
321,55645988.19211043
2,1, 7,21, 0, 1,50.00,60.00,SummerDesignDay
8,13.986581233564835
10,90272460.75957637
321,58319088.899085398
2,1, 7,21, 0, 1, 0.00,60.00,SummerDesignDay
555,22.00650548359705
595,23.953117795276304
635,22.159168801432956
675,22.001588223712586
715,23.998373492049308
2,1, 7,21, 0, 2, 0.00,10.00,SummerDesignDay
8,13.95555882260429
10,54706889.235532168
321,63284391.440583478
2,1, 7,21, 0, 2,10.00,20.00,SummerDesignDay
8,13.924507755336454
10,54706887.4239484
321,63895814.092012349
2,1, 7,21, 0, 2,20.00,30.00,SummerDesignDay
8,13.893416042989206
10,54706886.6500909
321,64544937.40598455
2,1, 7,21, 0, 2,30.00,40.00,SummerDesignDay
8,13.862289589689029
10,54706885.52355295
321,65194720.33829178
2,1, 7,21, 0, 2,40.00,50.00,SummerDesignDay
8,13.831134407608739
10,54706884.59592708
321,72828312.75131692
2,1, 7,21, 0, 2,50.00,60.00,SummerDesignDay
8,13.799938415548118
10,54706884.06560942
321,67880777.85612677
2,1, 7,21, 0, 2, 0.00,60.00,SummerDesignDay
555,22.00000064577824
595,22.535697658072324
635,21.824136087139935
675,21.37427455567472
715,23.94196710885961
2,1, 7,21, 0, 3, 0.00,10.00,SummerDesignDay
8,13.776521671948676
10,23000356.417534554
321,3562070.867651592
2,1, 7,21, 0, 3,10.00,20.00,SummerDesignDay
8,13.753085235778466
10,23000356.417534554
321,38150230.85789241
2,1, 7,21, 0, 3,20.00,30.00,SummerDesignDay
8,13.729636002354969
10,23000356.417534554
321,12000.0
2,1, 7,21, 0, 3,30.00,40.00,SummerDesignDay
8,13.706147375533054
10,23000356.417534554
321,38100649.558638479
2,1, 7,21, 0, 3,40.00,50.00,SummerDesignDay
8,13.682651961920304
10,23000356.417534554
321,12000.0
2,1, 7,21, 0, 3,50.00,60.00,SummerDesignDay
8,13.659136670643687
10,23000356.417534554
321,38027398.781512279
2,1, 7,21, 0, 3, 0.00,60.00,SummerDesignDay
555,20.1228885360055
595,20.386439522685277
635,21.430483709685665
675,20.760442131861386
715,22.444789780356986
2,1, 7,21, 0, 4, 0.00,10.00,SummerDesignDay
8,13.63560137410855
10,23000356.417534554
321,15693127.680275213
2,1, 7,21, 0, 4,10.00,20.00,SummerDesignDay
8,13.612040802606578
10,23000356.417534554
321,22262824.8665332
2,1, 7,21, 0, 4,20.00,30.00,SummerDesignDay
8,13.58846620506876
10,23000356.417534554
321,37772970.08520261
2,1, 7,21, 0, 4,30.00,40.00,SummerDesignDay
8,13.56487178447336
10,23000356.417534554
321,301809.64991032649
2,1, 7,21, 0, 4,40.00,50.00,SummerDesignDay
8,13.541257354069103
10,23000356.417534554
321,38008816.02292294
2,1, 7,21, 0, 4,50.00,60.00,SummerDesignDay
8,13.517617463812285
10,23000356.417534554
321,12000.0
2,1, 7,21, 0, 4, 0.00,60.00,SummerDesignDay
555,18.668164377259328
595,19.012140097990664
635,20.8773525128021
675,20.293223369542404
715,20.649664718347059
2,1, 7,21, 0, 5, 0.00,10.00,SummerDesignDay
8,13.50185415824011
10,23000356.417534554
321,37960928.90143243
2,1, 7,21, 0, 5,10.00,20.00,SummerDesignDay
8,13.486076034032447
10,23000356.417534554
321,12000.0
2,1, 7,21, 0, 5,20.00,30.00,SummerDesignDay
8,13.470289340350983
10,23000356.417534554
321,37911158.87290715
2,1, 7,21, 0, 5,30.00,40.00,SummerDesignDay
8,13.454493322631063
10,23000356.417534554
321,9394776.227070334
2,1, 7,21, 0, 5,40.00,50.00,SummerDesignDay
8,13.438688835118548
10,23000356.417534554
321,28531535.758446885
2,1, 7,21, 0, 5,50.00,60.00,SummerDesignDay
8,13.422888173889437
10,23000356.417534554
321,31873816.426064195
2,1, 7,21, 0, 5, 0.00,60.00,SummerDesignDay
555,18.211694077125576
595,18.5440123971714
635,20.43663814529634
675,19.95399811989009
715,19.931259025895576
2,1, 7,21, 0, 6, 0.00,10.00,SummerDesignDay
8,13.438688835118548
10,23000356.417534554
321,6180853.673578217
2,1, 7,21, 0, 6,10.00,20.00,SummerDesignDay
8,13.454493322631063
10,23000356.417534554
321,38022238.61963034
2,1, 7,21, 0, 6,20.00,30.00,SummerDesignDay
8,13.470289340350983
10,23000356.417534554
321,12000.0
2,1, 7,21, 0, 6,30.00,40.00,SummerDesignDay
8,13.486076034032447
10,23000356.417534554
321,37974106.20536575
2,1, 7,21, 0, 6,40.00,50.00,SummerDesignDay
8,13.50185415824011
10,23000356.417534554
321,12000.0
2,1, 7,21, 0, 6,50.00,60.00,SummerDesignDay
8,13.517617463812285
10,23000356.417534554
321,37924865.9215377
2,1, 7,21, 0, 6, 0.00,60.00,SummerDesignDay
555,18.07248348914082
595,18.396176846018425
635,20.17369915143929
675,19.84687705139312
715,19.638473284834878
2,1, 7,21, 0, 7, 0.00,10.00,SummerDesignDay
8,13.572736920571789
10,23000356.417534554
321,3080973.812609429
2,1, 7,21, 0, 7,10.00,20.00,SummerDesignDay
8,13.627748229152554
10,23000356.417534554
321,34818922.22931606
2,1, 7,21, 0, 7,20.00,30.00,SummerDesignDay
8,13.682651961920304
10,23000356.417534554
321,25968673.263317735
2,1, 7,21, 0, 7,30.00,40.00,SummerDesignDay
8,13.737448093244995
10,23000356.417534554
321,12055953.197231593
2,1, 7,21, 0, 7,40.00,50.00,SummerDesignDay
8,13.792137011831216
10,23000356.417534554
321,38036681.44125353
2,1, 7,21, 0, 7,50.00,60.00,SummerDesignDay
8,13.846719282840333
10,23000356.417534554
321,12000.0
2,1, 7,21, 0, 7, 0.00,60.00,SummerDesignDay
555,18.365454524835675
595,18.68225578891314
635,20.136374328367095
675,20.15176129953477
715,19.71511092952651
2,1, 7,21, 0, 8, 0.00,10.00,SummerDesignDay
8,13.978831900527043
10,23000356.417534554
321,37986995.100230287
2,1, 7,21, 0, 8,10.00,20.00,SummerDesignDay
8,14.110321014287419
10,23000356.417534554
321,12000.0
2,1, 7,21, 0, 8,20.00,30.00,SummerDesignDay
8,14.241191509616986
10,23000356.417534554
321,37938264.88637925
2,1, 7,21, 0, 8,30.00,40.00,SummerDesignDay
8,14.371447531304272
10,23000356.417534554
321,12000.0
2,1, 7,21, 0, 8,40.00,50.00,SummerDesignDay
8,14.501093766564925
10,23000356.417534554
321,37887563.61772446
2,1, 7,21, 0, 8,50.00,60.00,SummerDesignDay
8,14.630134792273804
10,23000356.417534554
321,19958873.17517446
2,1, 7,21, 0, 8, 0.00,60.00,SummerDesignDay
555,19.33609555173532
595,19.64427467437002
635,20.415290402336269
675,21.120503621681768
715,20.285544630043114
2,1, 7,21, 0, 9, 0.00,10.00,SummerDesignDay
8,14.773641492809972
10,27619371.856952214
321,37471788.55597182
2,1, 7,21, 0, 9,10.00,20.00,SummerDesignDay
8,14.91640948124148
10,27608905.655543806
321,45184547.420439
2,1, 7,21, 0, 9,20.00,30.00,SummerDesignDay
8,15.05843890714102
10,27608905.655543806
321,12000.0
2,1, 7,21, 0, 9,30.00,40.00,SummerDesignDay
8,15.199735893563798
10,27608905.655543806
321,38016399.30657293
2,1, 7,21, 0, 9,40.00,50.00,SummerDesignDay
8,15.340306256439395
10,27608905.655543806
321,12000.0
2,1, 7,21, 0, 9,50.00,60.00,SummerDesignDay
8,15.48015101768072
10,27608905.655543806
321,38122231.85281547
2,1, 7,21, 0, 9, 0.00,60.00,SummerDesignDay
555,20.928584396538655
595,21.22282385334569
635,22.397386721449608
675,22.776824179856097
715,21.332676252973795
2,1, 7,21, 0,10, 0.00,10.00,SummerDesignDay
8,15.60467292907716
10,63411912.5155848
321,59797862.54757187
2,1, 7,21, 0,10,10.00,20.00,SummerDesignDay
8,15.72862731650033
10,64656970.637411888
321,57596815.93084625
2,1, 7,21, 0,10,20.00,30.00,SummerDesignDay
8,15.852017409284228
10,68479880.00377774
321,51988045.20463929
2,1, 7,21, 0,10,30.00,40.00,SummerDesignDay
8,15.974848118364367
10,76419475.067599
321,51996155.76892164
2,1, 7,21, 0,10,40.00,50.00,SummerDesignDay
8,16.097123145563505
10,80983482.34922482
321,52063753.06405107
2,1, 7,21, 0,10,50.00,60.00,SummerDesignDay
8,16.218846351168599
10,82170306.84453887
321,52028128.10468193
2,1, 7,21, 0,10, 0.00,60.00,SummerDesignDay
555,23.2980185995274
595,23.70404780253578
635,23.803296616716908
675,23.95595848113959
715,23.600651080691546
2,1, 7,21, 0,11, 0.00,10.00,SummerDesignDay
8,16.325793027093189
10,104628758.21071199
321,52236855.2323362
2,1, 7,21, 0,11,10.00,20.00,SummerDesignDay
8,16.432322158488288
10,107489326.75937875
321,52248293.763486299
2,1, 7,21, 0,11,20.00,30.00,SummerDesignDay
8,16.538424180249178
10,109535162.13892757
321,52234872.39924306
2,1, 7,21, 0,11,30.00,40.00,SummerDesignDay
8,16.644108396469087
10,111531034.90664496
321,52221326.52313822
2,1, 7,21, 0,11,40.00,50.00,SummerDesignDay
8,16.749376736593655
10,113400117.61561193
321,53949158.99223064
2,1, 7,21, 0,11,50.00,60.00,SummerDesignDay
8,16.854232613237156
10,115185652.89175332
321,58810855.33059013
2,1, 7,21, 0,11, 0.00,60.00,SummerDesignDay
555,23.99911013511799
595,23.998899555306463
635,23.999648626409269
675,23.99910612030332
715,23.999110590880745
2,1, 7,21, 0,12, 0.00,10.00,SummerDesignDay
8,16.92390823520069
10,137237798.51849518
321,48115357.96534658
2,1, 7,21, 0,12,10.00,20.00,SummerDesignDay
8,16.99340178950456
10,138331453.7250636
321,47176545.271760929
2,1, 7,21, 0,12,20.00,30.00,SummerDesignDay
8,17.06272006743463
10,139470172.47595308
321,47200543.02018219
2,1, 7,21, 0,12,30.00,40.00,SummerDesignDay
8,17.131853229172639
10,140632531.9482197
321,46532499.30349572
2,1, 7,21, 0,12,40.00,50.00,SummerDesignDay
8,17.200807172194087
10,141738063.12162564
321,26503156.189683889
2,1, 7,21, 0,12,50.00,60.00,SummerDesignDay
8,17.269582116758607
10,142817382.74254058
321,26248802.58145409
2,1, 7,21, 0,12, 0.00,60.00,SummerDesignDay
555,23.999447855865087
595,23.99854356729792
635,23.999696504960555
675,23.999136422261214
715,23.998838559027424
2,1, 7,21, 0,13, 0.00,10.00,SummerDesignDay
8,17.32447360221357
10,146006062.64104975
321,45476373.7668052
2,1, 7,21, 0,13,10.00,20.00,SummerDesignDay
8,17.379251291230806
10,147145992.40872164
321,51117413.43335509
2,1, 7,21, 0,13,20.00,30.00,SummerDesignDay
8,17.433921312061729
10,148035587.50571979
321,51124924.163506988
2,1, 7,21, 0,13,30.00,40.00,SummerDesignDay
8,17.488473222557489
10,149064030.79952447
321,51132843.30747577
2,1, 7,21, 0,13,40.00,50.00,SummerDesignDay
8,17.542913447755134
10,150086178.1738224
321,51140754.7248981
2,1, 7,21, 0,13,50.00,60.00,SummerDesignDay
8,17.59724609886134
10,151094117.05637396
321,51148649.16104436
2,1, 7,21, 0,13, 0.00,60.00,SummerDesignDay
555,23.99911892578935
595,23.998075044387659
635,23.999607784294498
675,23.99908201945249
715,23.998639715218375
2,1, 7,21, 0,14, 0.00,10.00,SummerDesignDay
8,17.6311450462694
10,151217337.44499115
321,54604931.9891647
2,1, 7,21, 0,14,10.00,20.00,SummerDesignDay
8,17.665000449016245
10,151993057.00496636
321,46841143.40961922
2,1, 7,21, 0,14,20.00,30.00,SummerDesignDay
8,17.698812743128934
10,152614137.93486969
321,46818709.40027849
2,1, 7,21, 0,14,30.00,40.00,SummerDesignDay
8,17.732582050940107
10,153223136.48595477
321,46794076.416210178
2,1, 7,21, 0,14,40.00,50.00,SummerDesignDay
8,17.766307345121004
10,153827731.29748876
321,46769021.41530842
2,1, 7,21, 0,14,50.00,60.00,SummerDesignDay
8,17.79999023167558
10,154420207.41446284
321,46743639.33459791
2,1, 7,21, 0,14, 0.00,60.00,SummerDesignDay
555,23.998902547173754
595,23.9975873232641
635,24.000426839207639
675,23.99904836391666
715,24.013991256173484
2,1, 7,21, 0,15, 0.00,10.00,SummerDesignDay
8,17.79999023167558
10,153076052.8905923
321,46717923.85522236
2,1, 7,21, 0,15,10.00,20.00,SummerDesignDay
8,17.79999023167558
10,152910708.82299609
321,50148140.435627568
2,1, 7,21, 0,15,20.00,30.00,SummerDesignDay
8,17.79999023167558
10,152851596.58377777
321,55116404.94218025
2,1, 7,21, 0,15,30.00,40.00,SummerDesignDay
8,17.79999023167558
10,152881627.21568308
321,55117803.74113459
2,1, 7,21, 0,15,40.00,50.00,SummerDesignDay
8,17.79999023167558
10,152862909.02091117
321,55119771.412595678
2,1, 7,21, 0,15,50.00,60.00,SummerDesignDay
8,17.79999023167558
10,152854577.6646943
321,55121750.43039457
2,1, 7,21, 0,15, 0.00,60.00,SummerDesignDay
555,23.999136354825663
595,23.99790761494364
635,24.01658200900796
675,23.999046673230685
715,24.003300239070048
2,1, 7,21, 0,16, 0.00,10.00,SummerDesignDay
8,17.759562446305357
10,150452206.91781468
321,48346272.718477498
2,1, 7,21, 0,16,10.00,20.00,SummerDesignDay
8,17.71907809634183
10,149296064.30172194
321,47714364.676101658
2,1, 7,21, 0,16,20.00,30.00,SummerDesignDay
8,17.67853788661001
10,148500292.65262477
321,34777358.2437871
2,1, 7,21, 0,16,30.00,40.00,SummerDesignDay
8,17.63791796367351
10,147734044.5734528
321,28235758.2153314
2,1, 7,21, 0,16,40.00,50.00,SummerDesignDay
8,17.59724609886134
10,146989228.92261804
321,32373856.888099716
2,1, 7,21, 0,16,50.00,60.00,SummerDesignDay
8,17.55650676726033
10,146239318.4518835
321,47651500.13530961
2,1, 7,21, 0,16, 0.00,60.00,SummerDesignDay
555,23.999511777494033
595,23.99861182190745
635,24.002903711369269
675,23.999048614642964
715,23.998651421696996
2,1, 7,21, 0,17, 0.00,10.00,SummerDesignDay
8,17.50209486331892
10,145299074.3588615
321,44735936.419251907
2,1, 7,21, 0,17,10.00,20.00,SummerDesignDay
8,17.447570789624618
10,144130475.56102837
321,44479022.45235857
2,1, 7,21, 0,17,20.00,30.00,SummerDesignDay
8,17.392929544208135
10,143223619.62395133
321,30449055.059661557
2,1, 7,21, 0,17,30.00,40.00,SummerDesignDay
8,17.33818013976614
10,142398232.96806348
321,14051405.152994387
2,1, 7,21, 0,17,40.00,50.00,SummerDesignDay
8,17.283317298559309
10,141616127.3334516
321,44398364.520668108
2,1, 7,21, 0,17,50.00,60.00,SummerDesignDay
8,17.22833552437677
10,140824743.9565208
321,44432404.82899881
2,1, 7,21, 0,17, 0.00,60.00,SummerDesignDay
555,23.999756933250386
595,23.999137329548949
635,23.999037306497443
675,23.999091142197615
715,23.998998235194617
2,1, 7,21, 0,18, 0.00,10.00,SummerDesignDay
8,17.159453019160176
10,140322100.30905397
321,44292061.82435193
2,1, 7,21, 0,18,10.00,20.00,SummerDesignDay
8,17.090391773337136
10,139335472.09347443
321,24150245.58946415
2,1, 7,21, 0,18,20.00,30.00,SummerDesignDay
8,17.021151077964786
10,138324299.31207554
321,20107785.86025446
2,1, 7,21, 0,18,30.00,40.00,SummerDesignDay
8,16.951729380464653
10,137339641.08362628
321,44183773.57534171
2,1, 7,21, 0,18,40.00,50.00,SummerDesignDay
8,16.882126503829249
10,136341846.58842273
321,44228225.57838184
2,1, 7,21, 0,18,50.00,60.00,SummerDesignDay
8,16.812341807494034
10,135324630.1287269
321,44286210.01923292
2,1, 7,21, 0,18, 0.00,60.00,SummerDesignDay
555,23.99972224619002
595,23.999081844388188
635,23.998993550206224
675,23.999079240891349
715,23.999038357097804
2,1, 7,21, 0,19, 0.00,10.00,SummerDesignDay
8,16.707321072823203
10,135443008.35196919
321,27339214.281270844
2,1, 7,21, 0,19,10.00,20.00,SummerDesignDay
8,16.601881826644556
10,134161518.23044808
321,25793693.331575995
2,1, 7,21, 0,19,20.00,30.00,SummerDesignDay
8,16.496030555252849
10,132602357.35435342
321,40807588.26563521
2,1, 7,21, 0,19,30.00,40.00,SummerDesignDay
8,16.389760181474104
10,131026418.63168507
321,47033485.72865418
2,1, 7,21, 0,19,40.00,50.00,SummerDesignDay
8,16.283067654262039
10,129412742.17246811
321,47058422.14476426
2,1, 7,21, 0,19,50.00,60.00,SummerDesignDay
8,16.17595057957811
10,127764786.43362125
321,47084900.558644767
2,1, 7,21, 0,19, 0.00,60.00,SummerDesignDay
555,23.99943492058655
595,23.998544737202626
635,23.99903363603669
675,23.999033144222694
715,23.99867210446105
2,1, 7,21, 0,20, 0.00,10.00,SummerDesignDay
8,16.097123145563505
10,124600203.48259758
321,48275555.85535188
2,1, 7,21, 0,20,10.00,20.00,SummerDesignDay
8,16.018070242471564
10,123579971.13258575
321,36436116.71389392
2,1, 7,21, 0,20,20.00,30.00,SummerDesignDay
8,15.938779752340516
10,122338448.26301149
321,36350696.79640971
2,1, 7,21, 0,20,30.00,40.00,SummerDesignDay
8,15.85926152575189
10,121083188.86424817
321,36255219.064609039
2,1, 7,21, 0,20,40.00,50.00,SummerDesignDay
8,15.779503718563929
10,119804051.01483016
321,43485906.874173838
2,1, 7,21, 0,20,50.00,60.00,SummerDesignDay
8,15.699515709672767
10,118501001.22934033
321,50258358.76357644
2,1, 7,21, 0,20, 0.00,60.00,SummerDesignDay
555,23.999023481319786
595,23.997786657629566
635,23.999518324357767
675,23.99905418904987
715,23.99811913631756
2,1, 7,21, 0,21, 0.00,10.00,SummerDesignDay
8,15.63389147320404
10,116152556.24966276
321,62230885.52968587
2,1, 7,21, 0,21,10.00,20.00,SummerDesignDay
8,15.56810827419793
10,115638617.60364498
321,63923874.35456558
2,1, 7,21, 0,21,20.00,30.00,SummerDesignDay
8,15.502170882753524
10,114521678.16336982
321,63923282.94549886
2,1, 7,21, 0,21,30.00,40.00,SummerDesignDay
8,15.436068032613852
10,113382775.8157218
321,63922506.12931112
2,1, 7,21, 0,21,40.00,50.00,SummerDesignDay
8,15.369804371206009
10,112230711.75294478
321,63921718.44667933
2,1, 7,21, 0,21,50.00,60.00,SummerDesignDay
8,15.303384603594449
10,110941636.6550225
321,63920917.17351342
2,1, 7,21, 0,21, 0.00,60.00,SummerDesignDay
555,23.998719974572159
595,23.99721518471985
635,23.99972229644301
675,24.00139992582541
715,23.997712408160479
2,1, 7,21, 0,22, 0.00,10.00,SummerDesignDay
8,15.236797685071274
10,104509569.9676562
321,63615468.94952483
2,1, 7,21, 0,22,10.00,20.00,SummerDesignDay
8,15.170047891787942
10,103690566.68799605
321,60667645.780164327
2,1, 7,21, 0,22,20.00,30.00,SummerDesignDay
8,15.103134826860483
10,102852344.65272348
321,57548604.92022499
2,1, 7,21, 0,22,30.00,40.00,SummerDesignDay
8,15.036063385178485
10,101864884.82594015
321,57540195.56578695
2,1, 7,21, 0,22,40.00,50.00,SummerDesignDay
8,14.968821767219835
10,101376107.99518486
321,57531542.93676709
2,1, 7,21, 0,22,50.00,60.00,SummerDesignDay
8,14.90141525878635
10,100877987.03321269
321,57522816.94276682
2,1, 7,21, 0,22, 0.00,60.00,SummerDesignDay
555,23.986082499758664
595,23.996867647381806
635,23.642511117614494
675,23.723262764266648
715,23.99741308848495
2,1, 7,21, 0,23, 0.00,10.00,SummerDesignDay
8,14.848873673278373
10,99057377.69827956
321,61987759.00740479
2,1, 7,21, 0,23,10.00,20.00,SummerDesignDay
8,14.796237168136719
10,98721750.91584318
321,62436881.91736639
2,1, 7,21, 0,23,20.00,30.00,SummerDesignDay
8,14.743494321455645
10,98287257.79563032
321,62428609.80612156
2,1, 7,21, 0,23,30.00,40.00,SummerDesignDay
8,14.690649975253665
10,97836614.91284682
321,62420241.43429528
2,1, 7,21, 0,23,40.00,50.00,SummerDesignDay
8,14.637704281233117
10,97383368.59833022
321,62411805.199906479
2,1, 7,21, 0,23,50.00,60.00,SummerDesignDay
8,14.584656914839757
10,96924900.80179586
321,66897272.832046668
2,1, 7,21, 0,23, 0.00,60.00,SummerDesignDay
555,23.35031274480053
595,23.997304774840975
635,23.047773231019204
675,23.003470050577137
715,23.997656079016595
2,1, 7,21, 0,24, 0.00,10.00,SummerDesignDay
8,14.531507212058875
10,95452539.82042024
321,69878224.9937622
2,1, 7,21, 0,24,10.00,20.00,SummerDesignDay
8,14.47825496413355
10,94929124.29180028
321,69876711.25507571
2,1, 7,21, 0,24,20.00,30.00,SummerDesignDay
8,14.4249000133173
10,94437680.96681914
321,69875341.14708643
2,1, 7,21, 0,24,30.00,40.00,SummerDesignDay
8,14.371447531304272
10,93934077.55586927
321,69873957.68839117
2,1, 7,21, 0,24,40.00,50.00,SummerDesignDay
8,14.31788619902223
10,93426975.12096437
321,69872554.6687753
2,1, 7,21, 0,24,50.00,60.00,SummerDesignDay
8,14.264220970176066
10,92914384.73341492
321,69871131.89071669
2,1, 7,21, 0,24, 0.00,60.00,SummerDesignDay
555,22.480760458086669
595,23.997722778107585
635,22.57956071869097
675,22.335855157861535
715,23.997975648813186
3,1, 7,21, 0,SummerDesignDay
556,53.15326217735147,46.630340187343907,18,60,65.37662121277198, 6,20
596,51.67138842368584,46.20648173317707,18,60,64.05329461631595, 6,20
636,50.51124892168122,45.323686750891109,11,10,57.44010276228241, 7,10
676,53.31187873726899,48.84315698438827,20,10,62.272287873243197, 6,10
716,49.75660854391298,44.57737689579707, 1,60,59.415534585063479, 6,60
4,1, 7
7,22.2505,16.5,21, 5,60,28.9,21,14,60
1,FORT MCMURRAY AP ANN HTG 99.6% CONDNS DB,  56.65,-111.22,  -7.00, 369.10
2,1, 1,21, 0, 1, 0.00,10.00,WinterDesignDay
8,-36.2
10,86413409.06819122
321,1285870255.6177018
2,1, 1,21, 0, 1,10.00,20.00,WinterDesignDay
8,-36.2
10,86413407.65579647
321,1286030132.4386254
2,1, 1,21, 0, 1,20.00,30.00,WinterDesignDay
8,-36.2
10,86413406.57969059
321,1286114608.5267285
2,1, 1,21, 0, 1,30.00,40.00,WinterDesignDay
8,-36.2
10,86413405.23663432
321,1286193892.095686
2,1, 1,21, 0, 1,40.00,50.00,WinterDesignDay
8,-36.2
10,86413404.29646603
321,1286258720.435467
2,1, 1,21, 0, 1,50.00,60.00,WinterDesignDay
8,-36.2
10,86413403.75862777
321,1286310736.6674834
2,1, 1,21, 0, 1, 0.00,60.00,WinterDesignDay
555,21.999999958876314
595,21.998166773444856
635,18.26647335631768
675,21.999109605191057
715,22.21023296897697
2,1, 1,21, 0, 2, 0.00,10.00,WinterDesignDay
8,-36.2
10,54706880.15428685
321,1267114371.7854758
2,1, 1,21, 0, 2,10.00,20.00,WinterDesignDay
8,-36.2
10,54706879.30585446
321,1272099908.881645
2,1, 1,21, 0, 2,20.00,30.00,WinterDesignDay
8,-36.2
10,54706878.981976147
321,1275360341.8154197
2,1, 1,21, 0, 2,30.00,40.00,WinterDesignDay
8,-36.2
10,54706878.76972633
321,1284362369.9076572
2,1, 1,21, 0, 2,40.00,50.00,WinterDesignDay
8,-36.2
10,54706878.54636827
321,1289715977.9767853
2,1, 1,21, 0, 2,50.00,60.00,WinterDesignDay
8,-36.2
10,54706878.41228707
321,1294643627.2610164
2,1, 1,21, 0, 2, 0.00,60.00,WinterDesignDay
555,22.00000092281697
595,21.99968241262999
635,18.153040426690589
675,18.81907989747881
715,22.000835940167318
2,1, 1,21, 0, 3, 0.00,10.00,WinterDesignDay
8,-36.2
10,23000356.417534554
321,1167997967.1468595
2,1, 1,21, 0, 3,10.00,20.00,WinterDesignDay
8,-36.2
10,23000359.524589659
321,1156116724.3494068
2,1, 1,21, 0, 3,20.00,30.00,WinterDesignDay
8,-36.2
10,23000358.35814766
321,1206609524.7720237
2,1, 1,21, 0, 3,30.00,40.00,WinterDesignDay
8,-36.2
10,23000359.930515637
321,1213677929.2872744
2,1, 1,21, 0, 3,40.00,50.00,WinterDesignDay
8,-36.2
10,23000357.889565238
321,1184671636.5973745
2,1, 1,21, 0, 3,50.00,60.00,WinterDesignDay
8,-36.2
10,23000357.287349885
321,1235528752.9850138
2,1, 1,21, 0, 3, 0.00,60.00,WinterDesignDay
555,18.351769488661885
595,18.420374084128949
635,18.008750963962716
675,17.999466881518214
715,19.29110558781712
2,1, 1,21, 0, 4, 0.00,10.00,WinterDesignDay
8,-36.2
10,23000356.417534554
321,1221169479.2728306
2,1, 1,21, 0, 4,10.00,20.00,WinterDesignDay
8,-36.2
10,23000356.417534554
321,1211488405.639879
2,1, 1,21, 0, 4,20.00,30.00,WinterDesignDay
8,-36.2
10,23000356.417534554
321,1238046348.1516038
2,1, 1,21, 0, 4,30.00,40.00,WinterDesignDay
8,-36.2
10,23000356.417534554
321,1199577493.646525
2,1, 1,21, 0, 4,40.00,50.00,WinterDesignDay
8,-36.2
10,23000356.417534554
321,1239580629.1747757
2,1, 1,21, 0, 4,50.00,60.00,WinterDesignDay
8,-36.2
10,23000356.417534554
321,1240232825.1759639
2,1, 1,21, 0, 4, 0.00,60.00,WinterDesignDay
555,17.999984703070394
595,17.99997182291118
635,17.999988244241768
675,17.99886372704948
715,18.000175330769485
2,1, 1,21, 0, 5, 0.00,10.00,WinterDesignDay
8,-36.2
10,23000356.417534554
321,1201210398.0468326
2,1, 1,21, 0, 5,10.00,20.00,WinterDesignDay
8,-36.2
10,23000356.417534554
321,1240871682.7861973
2,1, 1,21, 0, 5,20.00,30.00,WinterDesignDay
8,-36.2
10,23000356.417534554
321,1223928831.6427625
2,1, 1,21, 0, 5,30.00,40.00,WinterDesignDay
8,-36.2
10,23000356.417534554
321,1219250801.4879404
2,1, 1,21, 0, 5,40.00,50.00,WinterDesignDay
8,-36.2
10,23000356.417534554
321,1241506665.5937336
2,1, 1,21, 0, 5,50.00,60.00,WinterDesignDay
8,-36.2
10,23000356.417534554
321,1202257679.7430237
2,1, 1,21, 0, 5, 0.00,60.00,WinterDesignDay
555,17.999990531696829
595,17.999983378718878
635,17.999991771989956
675,17.998882910120643
715,17.99996615534204
2,1, 1,21, 0, 6, 0.00,10.00,WinterDesignDay
8,-36.2
10,23000356.417534554
321,1241678389.6174963
2,1, 1,21, 0, 6,10.00,20.00,WinterDesignDay
8,-36.2
10,23000356.417534554
321,1241881669.0173956
2,1, 1,21, 0, 6,20.00,30.00,WinterDesignDay
8,-36.2
10,23000356.417534554
321,1202517207.0387855
2,1, 1,21, 0, 6,30.00,40.00,WinterDesignDay
8,-36.2
10,23000356.417534554
321,1241912986.6439224
2,1, 1,21, 0, 6,40.00,50.00,WinterDesignDay
8,-36.2
10,23000356.417534554
321,1222234557.4748467
2,1, 1,21, 0, 6,50.00,60.00,WinterDesignDay
8,-36.2
10,23000356.417534554
321,1222457760.89847
2,1, 1,21, 0, 6, 0.00,60.00,WinterDesignDay
555,17.9999911796568
595,17.999984269551278
635,17.999993331568338
675,17.998888665588276
715,17.99997953333261
2,1, 1,21, 0, 7, 0.00,10.00,WinterDesignDay
8,-36.2
10,23000356.417534554
321,1242080171.3777765
2,1, 1,21, 0, 7,10.00,20.00,WinterDesignDay
8,-36.2
10,23000356.417534554
321,1202729720.8151346
2,1, 1,21, 0, 7,20.00,30.00,WinterDesignDay
8,-36.2
10,23000356.417534554
321,1242085430.9343315
2,1, 1,21, 0, 7,30.00,40.00,WinterDesignDay
8,-36.2
10,23000356.417534554
321,1242232640.5802296
2,1, 1,21, 0, 7,40.00,50.00,WinterDesignDay
8,-36.2
10,23000356.417534554
321,1202801275.2652157
2,1, 1,21, 0, 7,50.00,60.00,WinterDesignDay
8,-36.2
10,23000356.417534554
321,1242149096.3925119
2,1, 1,21, 0, 7, 0.00,60.00,WinterDesignDay
555,17.99999132990503
595,17.999984451125149
635,17.999994172613133
675,17.99889022026092
715,17.99998328020781
2,1, 1,21, 0, 8, 0.00,10.00,WinterDesignDay
8,-36.2
10,23014892.808379566
321,1286194217.791747
2,1, 1,21, 0, 8,10.00,20.00,WinterDesignDay
8,-36.2
10,23006170.973872559
321,1261650722.2878402
2,1, 1,21, 0, 8,20.00,30.00,WinterDesignDay
8,-36.2
10,23000356.417534554
321,1269466908.3559073
2,1, 1,21, 0, 8,30.00,40.00,WinterDesignDay
8,-36.2
10,23000356.417534554
321,1224662303.0620297
2,1, 1,21, 0, 8,40.00,50.00,WinterDesignDay
8,-36.2
10,23000356.417534554
321,1263716345.6853319
2,1, 1,21, 0, 8,50.00,60.00,WinterDesignDay
8,-36.2
10,23000356.417534554
321,1261702176.916573
2,1, 1,21, 0, 8, 0.00,60.00,WinterDesignDay
555,17.999993539440025
595,17.999988276635447
635,19.84782768385665
675,19.980788178635753
715,17.99998805390651
2,1, 1,21, 0, 9, 0.00,10.00,WinterDesignDay
8,-36.2
10,27623442.046388817
321,1405307598.9790459
2,1, 1,21, 0, 9,10.00,20.00,WinterDesignDay
8,-36.2
10,27614720.568186076
321,1353300483.9725557
2,1, 1,21, 0, 9,20.00,30.00,WinterDesignDay
8,-36.2
10,27608905.655543806
321,1315678272.8679038
2,1, 1,21, 0, 9,30.00,40.00,WinterDesignDay
8,-36.2
10,27608905.655543806
321,1310029213.7933207
2,1, 1,21, 0, 9,40.00,50.00,WinterDesignDay
8,-36.2
10,27608905.655543806
321,1320768172.319381
2,1, 1,21, 0, 9,50.00,60.00,WinterDesignDay
8,-36.2
10,27608905.655543806
321,1279788604.0464454
2,1, 1,21, 0, 9, 0.00,60.00,WinterDesignDay
555,19.976627861689889
595,19.976560772361017
635,21.846351330097304
675,21.97740931806197
715,19.952126469140557
2,1, 1,21, 0,10, 0.00,10.00,WinterDesignDay
8,-36.2
10,63414820.10554274
321,1422949252.8877986
2,1, 1,21, 0,10,10.00,20.00,WinterDesignDay
8,-36.2
10,63411914.700132098
321,1356003668.2599455
2,1, 1,21, 0,10,20.00,30.00,WinterDesignDay
8,-36.2
10,63411913.21302544
321,1361074427.7734504
2,1, 1,21, 0,10,30.00,40.00,WinterDesignDay
8,-36.2
10,63411915.0894601
321,1349316268.6307903
2,1, 1,21, 0,10,40.00,50.00,WinterDesignDay
8,-36.2
10,63411916.36736458
321,1345260969.0862127
2,1, 1,21, 0,10,50.00,60.00,WinterDesignDay
8,-36.2
10,63411917.244233328
321,1343729081.2337516
2,1, 1,21, 0,10, 0.00,60.00,WinterDesignDay
555,21.9737285168945
595,21.97494134211499
635,21.999997236079087
675,21.99937789239442
715,21.960394207260987
2,1, 1,21, 0,11, 0.00,10.00,WinterDesignDay
8,-36.2
10,79282615.5088374
321,1326641162.8970154
2,1, 1,21, 0,11,10.00,20.00,WinterDesignDay
8,-36.2
10,79265180.10584986
321,1322972100.273088
2,1, 1,21, 0,11,20.00,30.00,WinterDesignDay
8,-36.2
10,79265180.92674139
321,1316296573.308288
2,1, 1,21, 0,11,30.00,40.00,WinterDesignDay
8,-36.2