Program Version,EnergyPlus, Version 8.9.0-eba93e8e1b, YMD=2019.04.04 18:00
1,5,Environment Title[],Latitude[deg],Longitude[deg],Time Zone[],Elevation[m]
2,8,Day of Simulation[],Month[],Day of Month[],DST Indicator[1=yes 0=no],Hour[],StartMinute[],EndMinute[],DayType
3,5,Cumulative Day of Simulation[],Month[],Day of Month[],DST Indicator[1=yes 0=no],DayType  ! When Daily Report Variables Requested
4,2,Cumulative Days of Simulation[],Month[]  ! When Monthly Report Variables Requested
5,1,Cumulative Days of Simulation[] ! When Run Period Report Variables Requested
6,1,Calendar Year of Simulation[] ! When Annual Report Variables Requested
7,9,Environment,Site Outdoor Air Drybulb Temperature [C] !Monthly [Value,Min,Day,Hour,Minute,Max,Day,Hour,Minute]
8,1,Environment,Site Outdoor Air Wetbulb Temperature [C] !TimeStep
305,1,STORAGE ROOM > 100 M2-SCH-H-SPACE FUNCTION ZN,Zone Air Temperature [C] !Hourly
306,7,STORAGE ROOM > 100 M2-SCH-H-SPACE FUNCTION ZN,Zone Air Relative Humidity [%] !Daily [Value,Min,Hour,Minute,Max,Hour,Minute]
345,1,STORAGE ROOM > 100 M2-SCH-I-SPACE FUNCTION ZN,Zone Air Temperature [C] !Hourly
346,7,STORAGE ROOM > 100 M2-SCH-I-SPACE FUNCTION ZN,Zone Air Relative Humidity [%] !Daily [Value,Min,Hour,Minute,Max,Hour,Minute]
385,1,STORAGE ROOM > 100 M2-SCH-J-SPACE FUNCTION ZN,Zone Air Temperature [C] !Hourly
386,7,STORAGE ROOM > 100 M2-SCH-J-SPACE FUNCTION ZN,Zone Air Relative Humidity [%] !Daily [Value,Min,Hour,Minute,Max,Hour,Minute]
425,1,STORAGE ROOM > 100 M2-SCH-K-SPACE FUNCTION ZN,Zone Air Temperature [C] !Hourly
426,7,STORAGE ROOM > 100 M2-SCH-K-SPACE FUNCTION ZN,Zone Air Relative Humidity [%] !Daily [Value,Min,Hour,Minute,Max,Hour,Minute]
465,1,VEHICLE MAINTENANCE AREA-SPACE FUNCTION ZN,Zone Air Temperature [C] !Hourly
466,7,VEHICLE MAINTENANCE AREA-SPACE FUNCTION ZN,Zone Air Relative Humidity [%] !Daily [Value,Min,Hour,Minute,Max,Hour,Minute]
10,1,Electricity:Facility [J] !TimeStep
616,1,DistrictCooling:Facility [J] !TimeStep
579,1,DistrictHeating:Facility [J] !TimeStep
End of Data Dictionary
1,FORT MCMURRAY AP ANN CLG .4% CONDNS DB=>MWB,  56.65,-111.22,  -7.00, 369.10
2,1, 7,21, 0, 1, 0.00,10.00,SummerDesignDay
8,14.218136923962174
10,21326497.69481694
579,0.0
616,3004166.152105286
2,1, 7,21, 0, 1,10.00,20.00,SummerDesignDay
8,14.171982153293495
10,21326497.69481694
579,0.0
616,2811136.7208474779
2,1, 7,21, 0, 1,20.00,30.00,SummerDesignDay
8,14.125744780286427
10,21326497.69481694
579,0.0
616,2611396.7510146189
2,1, 7,21, 0, 1,30.00,40.00,SummerDesignDay
8,14.079436086331978
10,21326497.69481694
579,0.0
616,2412327.7382567545
2,1, 7,21, 0, 1,40.00,50.00,SummerDesignDay
8,14.033050387896898
10,21326497.69481694
579,0.0
616,2215208.867322099
2,1, 7,21, 0, 1,50.00,60.00,SummerDesignDay
8,13.986581233564835
10,21326497.69481694
579,0.0
616,2021148.025650947
2,1, 7,21, 0, 1, 0.00,60.00,SummerDesignDay
305,24.000000000000005
345,23.7027504078273
385,23.25399540072043
425,24.722433204783149
465,19.02536741752833
2,1, 7,21, 0, 2, 0.00,10.00,SummerDesignDay
8,13.95555882260429
10,17882746.615864967
579,0.0
616,1858274.4383150496
2,1, 7,21, 0, 2,10.00,20.00,SummerDesignDay
8,13.924507755336454
10,17882746.615864967
579,0.0
616,1684646.2822216782
2,1, 7,21, 0, 2,20.00,30.00,SummerDesignDay
8,13.893416042989206
10,17882746.615864967
579,0.0
616,1507390.9074390778
2,1, 7,21, 0, 2,30.00,40.00,SummerDesignDay
8,13.862289589689029
10,17882746.615864967
579,0.0
616,1333568.4067670808
2,1, 7,21, 0, 2,40.00,50.00,SummerDesignDay
8,13.831134407608739
10,17882746.615864967
579,0.0
616,1164011.9774615304
2,1, 7,21, 0, 2,50.00,60.00,SummerDesignDay
8,13.799938415548118
10,17882746.615864967
579,0.0
616,999483.7288956423
2,1, 7,21, 0, 2, 0.00,60.00,SummerDesignDay
305,24.000000000000005
345,22.695120214210634
385,22.71650144751455
425,24.408432540818468
465,18.450876792115247
2,1, 7,21, 0, 3, 0.00,10.00,SummerDesignDay
8,13.776521671948676
10,17882746.615864967
579,0.0
616,858099.1290603307
2,1, 7,21, 0, 3,10.00,20.00,SummerDesignDay
8,13.753085235778466
10,17882746.615864967
579,0.0
616,722438.5708344774
2,1, 7,21, 0, 3,20.00,30.00,SummerDesignDay
8,13.729636002354969
10,17882746.615864967
579,0.0
616,591955.9444102087
2,1, 7,21, 0, 3,30.00,40.00,SummerDesignDay
8,13.706147375533054
10,17882746.615864967
579,407710.7956346653
616,468026.55619748737
2,1, 7,21, 0, 3,40.00,50.00,SummerDesignDay
8,13.682651961920304
10,17882746.615864967
579,1275850.2384954133
616,350751.2299894091
2,1, 7,21, 0, 3,50.00,60.00,SummerDesignDay
8,13.659136670643687
10,17882746.615864967
579,1839558.9720712442
616,233530.2880910579
2,1, 7,21, 0, 3, 0.00,60.00,SummerDesignDay
305,24.00000000000001
345,21.8053184117577
385,22.370222776626148
425,24.1568144169231
465,18.069120738145427
2,1, 7,21, 0, 4, 0.00,10.00,SummerDesignDay
8,13.63560137410855
10,17882746.615864967
579,2536470.4828204109
616,121716.12327666978
2,1, 7,21, 0, 4,10.00,20.00,SummerDesignDay
8,13.612040802606578
10,17882746.615864967
579,3210249.6729995158
616,15827.331397277123
2,1, 7,21, 0, 4,20.00,30.00,SummerDesignDay
8,13.58846620506876
10,17882746.615864967
579,3872694.098647489
616,0.0
2,1, 7,21, 0, 4,30.00,40.00,SummerDesignDay
8,13.56487178447336
10,17882746.615864967
579,4528351.937818582
616,0.0
2,1, 7,21, 0, 4,40.00,50.00,SummerDesignDay
8,13.541257354069103
10,17882746.615864967
579,5178964.127425103
616,0.0
2,1, 7,21, 0, 4,50.00,60.00,SummerDesignDay
8,13.517617463812285
10,17882746.615864967
579,5826595.437186965
616,0.0
2,1, 7,21, 0, 4, 0.00,60.00,SummerDesignDay
305,23.98951051199442
345,21.358490966879285
385,22.122392306179078
425,23.95904069623288
465,18.00024268040522
2,1, 7,21, 0, 5, 0.00,10.00,SummerDesignDay
8,13.50185415824011
10,17882746.615864967
579,6263380.015740878
616,0.0
2,1, 7,21, 0, 5,10.00,20.00,SummerDesignDay
8,13.486076034032447
10,17882746.615864967
579,7139576.168740675
616,0.0
2,1, 7,21, 0, 5,20.00,30.00,SummerDesignDay
8,13.470289340350983
10,17882746.615864967
579,7456544.2588347629
616,0.0
2,1, 7,21, 0, 5,30.00,40.00,SummerDesignDay
8,13.454493322631063
10,17882746.615864967
579,7959333.432834523
616,0.0
2,1, 7,21, 0, 5,40.00,50.00,SummerDesignDay
8,13.438688835118548
10,17882746.615864967
579,8440145.816612741
616,0.0
2,1, 7,21, 0, 5,50.00,60.00,SummerDesignDay
8,13.422888173889437
10,17882746.615864967
579,8906466.914822888
616,0.0
2,1, 7,21, 0, 5, 0.00,60.00,SummerDesignDay
305,23.914168576488579
345,21.09219629062176
385,22.000843748353998
425,23.804218463784566
465,18.000000415343057
2,1, 7,21, 0, 6, 0.00,10.00,SummerDesignDay
8,13.438688835118548
10,19413302.650954736
579,8020946.587139486
616,0.0
2,1, 7,21, 0, 6,10.00,20.00,SummerDesignDay
8,13.454493322631063
10,19413302.650954736
579,7614469.586937313
616,0.0
2,1, 7,21, 0, 6,20.00,30.00,SummerDesignDay
8,13.470289340350983
10,19413302.650954736
579,7208232.347688503
616,0.0
2,1, 7,21, 0, 6,30.00,40.00,SummerDesignDay
8,13.486076034032447
10,19413302.650954736
579,6800531.436766851
616,0.0
2,1, 7,21, 0, 6,40.00,50.00,SummerDesignDay
8,13.50185415824011
10,19413302.650954736
579,6391640.726003141
616,0.0
2,1, 7,21, 0, 6,50.00,60.00,SummerDesignDay
8,13.517617463812285
10,19413302.650954736
579,5981388.962387493
616,0.0
2,1, 7,21, 0, 6, 0.00,60.00,SummerDesignDay
305,23.84329483448956
345,20.94720918477175
385,22.126402111762645
425,23.727079203594206
465,18.000000000713184
2,1, 7,21, 0, 7, 0.00,10.00,SummerDesignDay
8,13.572736920571789
10,20943858.686044497
579,4528172.747253347
616,0.0
2,1, 7,21, 0, 7,10.00,20.00,SummerDesignDay
8,13.627748229152554
10,20943858.686044497
579,3072651.893672462
616,0.0
2,1, 7,21, 0, 7,20.00,30.00,SummerDesignDay
8,13.682651961920304
10,20943858.686044497
579,1615709.7061969964
616,0.0
2,1, 7,21, 0, 7,30.00,40.00,SummerDesignDay
8,13.737448093244995
10,20943858.686044497
579,156870.56298442628
616,0.0
2,1, 7,21, 0, 7,40.00,50.00,SummerDesignDay
8,13.792137011831216
10,20943858.686044497
579,0.0
616,0.0
2,1, 7,21, 0, 7,50.00,60.00,SummerDesignDay
8,13.846719282840333
10,20943858.686044497
579,0.0
616,0.0
2,1, 7,21, 0, 7, 0.00,60.00,SummerDesignDay
305,23.87718295592713
345,20.947955971834955
385,22.54725624003684
425,23.831068510574924
465,18.030056700750419
2,1, 7,21, 0, 8, 0.00,10.00,SummerDesignDay
8,13.978831900527043
10,22474414.721134265
579,38942875.6020834
616,0.0
2,1, 7,21, 0, 8,10.00,20.00,SummerDesignDay
8,14.110321014287419
10,22474414.721134265
579,0.0
616,0.0
2,1, 7,21, 0, 8,20.00,30.00,SummerDesignDay
8,14.241191509616986
10,22474414.721134265
579,13201549.636421318
616,1667868.3430564083
2,1, 7,21, 0, 8,30.00,40.00,SummerDesignDay
8,14.371447531304272
10,22474414.721134265
579,7612431.231379005
616,1714002.731698466
2,1, 7,21, 0, 8,40.00,50.00,SummerDesignDay
8,14.501093766564925
10,22474414.721134265
579,2695202.1349344535
616,2151269.8888610329
2,1, 7,21, 0, 8,50.00,60.00,SummerDesignDay
8,14.630134792273804
10,22474414.721134265
579,0.0
616,2607950.137010048
2,1, 7,21, 0, 8, 0.00,60.00,SummerDesignDay
305,23.990102634770225
345,21.148895927954084
385,23.22737687613866
425,24.17310425498118
465,20.0849000210405
2,1, 7,21, 0, 9, 0.00,10.00,SummerDesignDay
8,14.773641492809972
10,27122353.268870098
579,36829083.771773878
616,3058679.786042331
2,1, 7,21, 0, 9,10.00,20.00,SummerDesignDay
8,14.91640948124148
10,27122353.268870098
579,0.0
616,3531019.8257703857
2,1, 7,21, 0, 9,20.00,30.00,SummerDesignDay
8,15.05843890714102
10,27122353.268870098
579,6970406.920443106
616,4040065.4689772457
2,1, 7,21, 0, 9,30.00,40.00,SummerDesignDay
8,15.199735893563798
10,27122353.268870098
579,4229775.3230328089
616,5286685.363085085
2,1, 7,21, 0, 9,40.00,50.00,SummerDesignDay
8,15.340306256439395
10,27122353.268870098
579,0.0
616,8148446.334930284
2,1, 7,21, 0, 9,50.00,60.00,SummerDesignDay
8,15.48015101768072
10,27122353.268870098
579,0.0
616,7671062.718833401
2,1, 7,21, 0, 9, 0.00,60.00,SummerDesignDay
305,23.99999999999903
345,21.62051518217452
385,23.881373542089066
425,24.710109394759998
465,22.207108525674874
2,1, 7,21, 0,10, 0.00,10.00,SummerDesignDay
8,15.60467292907716
10,31106300.59550081
579,0.0
616,8675563.993322352
2,1, 7,21, 0,10,10.00,20.00,SummerDesignDay
8,15.72862731650033
10,31106300.59550081
579,0.0
616,9278979.681158022
2,1, 7,21, 0,10,20.00,30.00,SummerDesignDay
8,15.852017409284228
10,31106300.59550081
579,0.0
616,9877303.100956489
2,1, 7,21, 0,10,30.00,40.00,SummerDesignDay
8,15.974848118364367
10,31106300.59550081
579,0.0
616,12142233.327742143
2,1, 7,21, 0,10,40.00,50.00,SummerDesignDay
8,16.097123145563505
10,31106300.59550081
579,0.0
616,20875518.044196626
2,1, 7,21, 0,10,50.00,60.00,SummerDesignDay
8,16.218846351168599
10,31106300.59550081
579,0.0
616,24955750.766618238
2,1, 7,21, 0,10, 0.00,60.00,SummerDesignDay
305,24.0
345,22.293606111102294
385,23.999999997295466
425,25.373213303893455
465,23.561547590339005
2,1, 7,21, 0,11, 0.00,10.00,SummerDesignDay
8,16.325793027093189
10,33762265.47992128
579,0.0
616,34111258.11784345
2,1, 7,21, 0,11,10.00,20.00,SummerDesignDay
8,16.432322158488288
10,33762265.47992128
579,0.0
616,39567029.854139599
2,1, 7,21, 0,11,20.00,30.00,SummerDesignDay
8,16.538424180249178
10,33762265.47992128
579,0.0
616,44632706.69752055
2,1, 7,21, 0,11,30.00,40.00,SummerDesignDay
8,16.644108396469087
10,33762265.47992128
579,0.0
616,49701020.08682724
2,1, 7,21, 0,11,40.00,50.00,SummerDesignDay
8,16.749376736593655
10,33762265.47992128
579,0.0
616,54722839.53647595
2,1, 7,21, 0,11,50.00,60.00,SummerDesignDay
8,16.854232613237156
10,33762265.47992128
579,0.0
616,59717693.53833333
2,1, 7,21, 0,11, 0.00,60.00,SummerDesignDay
305,24.000000000000005
345,23.09270718226151
385,24.000000000000005
425,26.136135334197637
465,23.998594015445648
2,1, 7,21, 0,12, 0.00,10.00,SummerDesignDay
8,16.92390823520069
10,32996987.462376395
579,0.0
616,62623786.831917788
2,1, 7,21, 0,12,10.00,20.00,SummerDesignDay
8,16.99340178950456
10,32996987.462376395
579,0.0
616,65913599.70991395
2,1, 7,21, 0,12,20.00,30.00,SummerDesignDay
8,17.06272006743463
10,32996987.462376395
579,0.0
616,69243693.3497012
2,1, 7,21, 0,12,30.00,40.00,SummerDesignDay
8,17.131853229172639
10,32996987.462376395
579,0.0
616,72560910.36258456
2,1, 7,21, 0,12,40.00,50.00,SummerDesignDay
8,17.200807172194087
10,32996987.462376395
579,0.0
616,75870938.00468853
2,1, 7,21, 0,12,50.00,60.00,SummerDesignDay
8,17.269582116758607
10,32996987.462376395
579,0.0
616,79172794.17127793
2,1, 7,21, 0,12, 0.00,60.00,SummerDesignDay
305,24.000000000000015
345,23.77141665732876
385,24.000000000000005
425,26.74895380426375
465,23.99999717126225
2,1, 7,21, 0,13, 0.00,10.00,SummerDesignDay
8,17.32447360221357
10,32231709.444831514
579,0.0
616,81307029.79259268
2,1, 7,21, 0,13,10.00,20.00,SummerDesignDay
8,17.379251291230806
10,32231709.444831514
579,0.0
616,83892410.38743563
2,1, 7,21, 0,13,20.00,30.00,SummerDesignDay
8,17.433921312061729
10,32231709.444831514
579,0.0
616,86526469.58094912
2,1, 7,21, 0,13,30.00,40.00,SummerDesignDay
8,17.488473222557489
10,32231709.444831514
579,0.0
616,89155714.0555232
2,1, 7,21, 0,13,40.00,50.00,SummerDesignDay
8,17.542913447755134
10,32231709.444831514
579,0.0
616,91783552.38668904
2,1, 7,21, 0,13,50.00,60.00,SummerDesignDay
8,17.59724609886134
10,32231709.444831514
579,0.0
616,94408312.26063267
2,1, 7,21, 0,13, 0.00,60.00,SummerDesignDay
305,24.00000000000001
345,24.26100106066716
385,24.000000000000005
425,27.19386043729917
465,23.99999999442174
2,1, 7,21, 0,14, 0.00,10.00,SummerDesignDay
8,17.6311450462694
10,32231709.444831514
579,0.0
616,96070069.14808192
2,1, 7,21, 0,14,10.00,20.00,SummerDesignDay
8,17.665000449016245
10,32231709.444831514
579,0.0
616,97730026.65416339
2,1, 7,21, 0,14,20.00,30.00,SummerDesignDay
8,17.698812743128934
10,32231709.444831514
579,0.0
616,99387820.79702997
2,1, 7,21, 0,14,30.00,40.00,SummerDesignDay
8,17.732582050940107
10,32231709.444831514
579,0.0
616,101043416.05194086
2,1, 7,21, 0,14,40.00,50.00,SummerDesignDay
8,17.766307345121004
10,32231709.444831514
579,0.0
616,102696758.23001406
2,1, 7,21, 0,14,50.00,60.00,SummerDesignDay
8,17.79999023167558
10,32231709.444831514
579,0.0
616,104347835.30309606
2,1, 7,21, 0,14, 0.00,60.00,SummerDesignDay
305,24.00000000000001
345,24.612568461718739
385,24.0
425,27.51637745512816
465,23.99999999998909
2,1, 7,21, 0,15, 0.00,10.00,SummerDesignDay
8,17.79999023167558
10,32231709.444831514
579,0.0
616,116518898.97772995
2,1, 7,21, 0,15,10.00,20.00,SummerDesignDay
8,17.79999023167558
10,32231709.444831514
579,0.0
616,102919072.03547867
2,1, 7,21, 0,15,20.00,30.00,SummerDesignDay
8,17.79999023167558
10,32231709.444831514
579,0.0
616,109359630.71568766
2,1, 7,21, 0,15,30.00,40.00,SummerDesignDay
8,17.79999023167558
10,32231709.444831514
579,0.0
616,104505538.14412174
2,1, 7,21, 0,15,40.00,50.00,SummerDesignDay
8,17.79999023167558
10,32231709.444831514
579,0.0
616,104879917.35864127
2,1, 7,21, 0,15,50.00,60.00,SummerDesignDay
8,17.79999023167558
10,32231709.444831514
579,0.0
616,104911266.2250761
2,1, 7,21, 0,15, 0.00,60.00,SummerDesignDay
305,24.000000000000005
345,23.963854695590439
385,24.0
425,27.696108799740985
465,24.0
2,1, 7,21, 0,16, 0.00,10.00,SummerDesignDay
8,17.759562446305357
10,35675460.52378348
579,0.0
616,107531396.49993506
2,1, 7,21, 0,16,10.00,20.00,SummerDesignDay
8,17.71907809634183
10,35675460.52378348
579,0.0
616,105661808.67116545
2,1, 7,21, 0,16,20.00,30.00,SummerDesignDay
8,17.67853788661001
10,35675460.52378348
579,0.0
616,103781081.50889518
2,1, 7,21, 0,16,30.00,40.00,SummerDesignDay
8,17.63791796367351
10,35675460.52378348
579,0.0
616,101892261.77256991
2,1, 7,21, 0,16,40.00,50.00,SummerDesignDay
8,17.59724609886134
10,35675460.52378348
579,0.0
616,99982885.10319314
2,1, 7,21, 0,16,50.00,60.00,SummerDesignDay
8,17.55650676726033
10,35675460.52378348
579,0.0
616,98053730.58347772
2,1, 7,21, 0,16, 0.00,60.00,SummerDesignDay
305,24.00000000000001
345,23.999999999917916
385,24.000000000000005
425,27.7716207482412
465,23.99999999999999
2,1, 7,21, 0,17, 0.00,10.00,SummerDesignDay
8,17.50209486331892
10,35675460.52378348
579,0.0
616,94990463.40857132
2,1, 7,21, 0,17,10.00,20.00,SummerDesignDay
8,17.447570789624618
10,35675460.52378348
579,0.0
616,92349446.84812425
2,1, 7,21, 0,17,20.00,30.00,SummerDesignDay
8,17.392929544208135
10,35675460.52378348
579,0.0
616,89726338.659284
2,1, 7,21, 0,17,30.00,40.00,SummerDesignDay
8,17.33818013976614
10,35675460.52378348
579,0.0
616,87103146.93932462
2,1, 7,21, 0,17,40.00,50.00,SummerDesignDay
8,17.283317298559309
10,35675460.52378348
579,0.0
616,84481287.84903729
2,1, 7,21, 0,17,50.00,60.00,SummerDesignDay
8,17.22833552437677
10,35675460.52378348
579,0.0
616,81856111.63628835
2,1, 7,21, 0,17, 0.00,60.00,SummerDesignDay
305,24.0
345,24.000000000000005
385,24.000000000000005
425,27.741887956983857
465,24.0
2,1, 7,21, 0,18, 0.00,10.00,SummerDesignDay
8,17.159453019160176
10,35675460.52378348
579,0.0
616,78500884.9478543
2,1, 7,21, 0,18,10.00,20.00,SummerDesignDay
8,17.090391773337136
10,35675460.52378348
579,0.0
616,75200146.25017992
2,1, 7,21, 0,18,20.00,30.00,SummerDesignDay
8,17.021151077964786
10,35675460.52378348
579,0.0
616,71899507.9071672
2,1, 7,21, 0,18,30.00,40.00,SummerDesignDay
8,16.951729380464653
10,35675460.52378348
579,0.0
616,68582291.86033234
2,1, 7,21, 0,18,40.00,50.00,SummerDesignDay
8,16.882126503829249
10,35675460.52378348
579,0.0
616,65236222.26492731
2,1, 7,21, 0,18,50.00,60.00,SummerDesignDay
8,16.812341807494034
10,35675460.52378348
579,0.0
616,61887740.406948868
2,1, 7,21, 0,18, 0.00,60.00,SummerDesignDay
305,24.00000000000001
345,24.0
385,24.0
425,27.627365441823458
465,23.999999999999987
2,1, 7,21, 0,19, 0.00,10.00,SummerDesignDay
8,16.707321072823203
10,32096660.382911829
579,0.0
616,49266572.849507007
2,1, 7,21, 0,19,10.00,20.00,SummerDesignDay
8,16.601881826644556
10,32096660.382911829
579,0.0
616,44110509.53420729
2,1, 7,21, 0,19,20.00,30.00,SummerDesignDay
8,16.496030555252849
10,32096660.382911829
579,0.0
616,39065919.7507919
2,1, 7,21, 0,19,30.00,40.00,SummerDesignDay
8,16.389760181474104
10,32096660.382911829
579,0.0
616,34027227.83318737
2,1, 7,21, 0,19,40.00,50.00,SummerDesignDay
8,16.283067654262039
10,32096660.382911829
579,0.0
616,29004973.169576244
2,1, 7,21, 0,19,50.00,60.00,SummerDesignDay
8,16.17595057957811
10,32096660.382911829
579,0.0
616,23992819.477452958
2,1, 7,21, 0,19, 0.00,60.00,SummerDesignDay
305,24.000000000000015
345,24.000000000000005
385,24.00000000000001
425,27.33601368216655
465,24.000000000000005
2,1, 7,21, 0,20, 0.00,10.00,SummerDesignDay
8,16.097123145563505
10,28979277.870265765
579,0.0
616,18153972.3177287
2,1, 7,21, 0,20,10.00,20.00,SummerDesignDay
8,16.018070242471564
10,28979277.870265765
579,0.0
616,17902698.418714558
2,1, 7,21, 0,20,20.00,30.00,SummerDesignDay
8,15.938779752340516
10,28979277.870265765
579,0.0
616,17506187.575418254
2,1, 7,21, 0,20,30.00,40.00,SummerDesignDay
8,15.85926152575189
10,28979277.870265765
579,0.0
616,17118917.997737398
2,1, 7,21, 0,20,40.00,50.00,SummerDesignDay
8,15.779503718563929
10,28979277.870265765
579,0.0
616,16722609.498647012
2,1, 7,21, 0,20,50.00,60.00,SummerDesignDay
8,15.699515709672767
10,28979277.870265765
579,0.0
616,16298591.60592701
2,1, 7,21, 0,20, 0.00,60.00,SummerDesignDay
305,24.000000000000005
345,24.00000000000001
385,24.0
425,26.85911394412094
465,23.49665197883481
2,1, 7,21, 0,21, 0.00,10.00,SummerDesignDay
8,15.63389147320404
10,28979277.870265765
579,0.0
616,16013691.59704984
2,1, 7,21, 0,21,10.00,20.00,SummerDesignDay
8,15.56810827419793
10,28979277.870265765
579,0.0
616,15632994.577166848
2,1, 7,21, 0,21,20.00,30.00,SummerDesignDay
8,15.502170882753524
10,28979277.870265765
579,0.0
616,15246071.038743828
2,1, 7,21, 0,21,30.00,40.00,SummerDesignDay
8,15.436068032613852
10,28979277.870265765
579,0.0
616,14857435.6398681
2,1, 7,21, 0,21,40.00,50.00,SummerDesignDay
8,15.369804371206009
10,28979277.870265765
579,0.0
616,14467619.920834858
2,1, 7,21, 0,21,50.00,60.00,SummerDesignDay
8,15.303384603594449
10,28979277.870265765
579,0.0
616,14077293.49085944
2,1, 7,21, 0,21, 0.00,60.00,SummerDesignDay
305,24.000000000000005
345,24.00000000000001
385,24.0
425,26.371710106032837
465,22.39709320844675
2,1, 7,21, 0,22, 0.00,10.00,SummerDesignDay
8,15.236797685071274
10,28979277.870265765
579,0.0
616,13686718.485967309
2,1, 7,21, 0,22,10.00,20.00,SummerDesignDay
8,15.170047891787942
10,28979277.870265765
579,0.0
616,13296147.143146577
2,1, 7,21, 0,22,20.00,30.00,SummerDesignDay
8,15.103134826860483
10,28979277.870265765
579,0.0
616,12873325.257677127
2,1, 7,21, 0,22,30.00,40.00,SummerDesignDay
8,15.036063385178485
10,28979277.870265765
579,0.0
616,12438957.255798832
2,1, 7,21, 0,22,40.00,50.00,SummerDesignDay
8,14.968821767219835
10,28979277.870265765
579,0.0
616,12005198.383372736
2,1, 7,21, 0,22,50.00,60.00,SummerDesignDay
8,14.90141525878635
10,28979277.870265765
579,0.0
616,11513473.581220203
2,1, 7,21, 0,22, 0.00,60.00,SummerDesignDay
305,24.00000000000001
345,24.00000000000001
385,24.0
425,25.92931925862379
465,21.40726785133151
2,1, 7,21, 0,23, 0.00,10.00,SummerDesignDay
8,14.848873673278373
10,28979277.870265765
579,0.0
616,11016530.572778276
2,1, 7,21, 0,23,10.00,20.00,SummerDesignDay
8,14.796237168136719
10,28979277.870265765
579,0.0
616,10609303.379186364
2,1, 7,21, 0,23,20.00,30.00,SummerDesignDay
8,14.743494321455645
10,28979277.870265765
579,0.0
616,10207326.514244568
2,1, 7,21, 0,23,30.00,40.00,SummerDesignDay
8,14.690649975253665
10,28979277.870265765
579,0.0
616,9803569.926710483
2,1, 7,21, 0,23,40.00,50.00,SummerDesignDay
8,14.637704281233117
10,28979277.870265765
579,0.0
616,9401353.184623663
2,1, 7,21, 0,23,50.00,60.00,SummerDesignDay
8,14.584656914839757
10,28979277.870265765
579,0.0
616,9000802.846477068
2,1, 7,21, 0,23, 0.00,60.00,SummerDesignDay
305,24.00000000000001
345,24.00000000000001
385,24.000000000000005
425,25.50111559417356
465,20.518394894441355
2,1, 7,21, 0,24, 0.00,10.00,SummerDesignDay
8,14.531507212058875
10,25918165.800086235
579,0.0
616,6495697.942447853
2,1, 7,21, 0,24,10.00,20.00,SummerDesignDay
8,14.47825496413355
10,25918165.800086235
579,0.0
616,6169353.108152531
2,1, 7,21, 0,24,20.00,30.00,SummerDesignDay
8,14.4249000133173
10,25918165.800086235
579,0.0
616,5843054.747346044
2,1, 7,21, 0,24,30.00,40.00,SummerDesignDay
8,14.371447531304272
10,25918165.800086235
579,0.0
616,5517746.625360396
2,1, 7,21, 0,24,40.00,50.00,SummerDesignDay
8,14.31788619902223
10,25918165.800086235
579,0.0
616,5195830.109065168
2,1, 7,21, 0,24,50.00,60.00,SummerDesignDay
8,14.264220970176066
10,25918165.800086235
579,0.0
616,4876640.692090524
2,1, 7,21, 0,24, 0.00,60.00,SummerDesignDay
305,24.0
345,24.00000000000001
385,23.822713678517485
425,25.08845038576017
465,19.74634857980761
3,1, 7,21, 0,SummerDesignDay
306,44.13714595762468,42.37505104129468,22,50,47.382131780790249, 7,30
346,46.463360808340819,41.364560967736469,19,60,54.11113133412066, 7,20
386,45.69399347640251,41.67799798310457,20,60,52.88696786662312, 5,60
426,41.570368357423927,36.74189528626029,16,30,46.07270728284804, 6,60
466,51.94331356503128,40.3248902580938,15,60,65.31140471840266, 6,50
4,1, 7
7,22.2505,16.5,21, 5,60,28.9,21,14,60
1,FORT MCMURRAY AP ANN HTG 99.6% CONDNS DB,  56.65,-111.22,  -7.00, 369.10
2,1, 1,21, 0, 1, 0.00,10.00,WinterDesignDay
8,-36.2
10,21326497.69481694
579,597707315.8864176
616,0.0
2,1, 1,21, 0, 1,10.00,20.00,WinterDesignDay
8,-36.2
10,21326497.69481694
579,597918548.674616
616,0.0
2,1, 1,21, 0, 1,20.00,30.00,WinterDesignDay
8,-36.2
10,21326497.69481694
579,605359924.4642317
616,0.0
2,1, 1,21, 0, 1,30.00,40.00,WinterDesignDay
8,-36.2
10,21326497.69481694
579,612427154.2804027
616,0.0
2,1, 1,21, 0, 1,40.00,50.00,WinterDesignDay
8,-36.2
10,21326497.69481694
579,617606586.4727056
616,0.0
2,1, 1,21, 0, 1,50.00,60.00,WinterDesignDay
8,-36.2
10,21326497.69481694
579,617035149.2246676
616,0.0
2,1, 1,21, 0, 1, 0.00,60.00,WinterDesignDay
305,22.0
345,18.7364073516618
385,22.0
425,9.220283551760489
465,18.0
2,1, 1,21, 0, 2, 0.00,10.00,WinterDesignDay
8,-36.2
10,17882746.615864967
579,586922408.0433515
616,0.0
2,1, 1,21, 0, 2,10.00,20.00,WinterDesignDay
8,-36.2
10,17882746.615864967
579,587422246.9762565
616,0.0
2,1, 1,21, 0, 2,20.00,30.00,WinterDesignDay
8,-36.2
10,17882746.615864967
579,595507184.5595546
616,0.0
2,1, 1,21, 0, 2,30.00,40.00,WinterDesignDay
8,-36.2
10,17882746.615864967
579,603620986.8679166
616,0.0
2,1, 1,21, 0, 2,40.00,50.00,WinterDesignDay
8,-36.2
10,17882746.615864967
579,611302628.7542896
616,0.0
2,1, 1,21, 0, 2,50.00,60.00,WinterDesignDay
8,-36.2
10,17882746.615864967
579,612030213.6384541
616,0.0
2,1, 1,21, 0, 2, 0.00,60.00,WinterDesignDay
305,18.77187565518007
345,18.000000000145606
385,21.999999999999998
425,9.164181931239292
465,18.0
2,1, 1,21, 0, 3, 0.00,10.00,WinterDesignDay
8,-36.2
10,17882746.615864967
579,612350675.6361451
616,0.0
2,1, 1,21, 0, 3,10.00,20.00,WinterDesignDay
8,-36.2
10,17882746.615864967
579,613103137.3225731
616,0.0
2,1, 1,21, 0, 3,20.00,30.00,WinterDesignDay
8,-36.2
10,17882746.615864967
579,613409450.3976185
616,0.0
2,1, 1,21, 0, 3,30.00,40.00,WinterDesignDay
8,-36.2
10,17882746.615864967
579,613642815.4771317
616,0.0
2,1, 1,21, 0, 3,40.00,50.00,WinterDesignDay
8,-36.2
10,17882746.615864967
579,613832035.1048124
616,0.0
2,1, 1,21, 0, 3,50.00,60.00,WinterDesignDay
8,-36.2
10,17882746.615864967
579,613985035.4807035
616,0.0
2,1, 1,21, 0, 3, 0.00,60.00,WinterDesignDay
305,18.000000006535584
345,18.000000000000008
385,21.999999999999998
425,9.013042250507885
465,18.0
2,1, 1,21, 0, 4, 0.00,10.00,WinterDesignDay
8,-36.2
10,17882746.615864967
579,614107259.5406274
616,0.0
2,1, 1,21, 0, 4,10.00,20.00,WinterDesignDay
8,-36.2
10,17882746.615864967
579,614205447.2673878
616,0.0
2,1, 1,21, 0, 4,20.00,30.00,WinterDesignDay
8,-36.2
10,17882746.615864967
579,614284795.0752261
616,0.0
2,1, 1,21, 0, 4,30.00,40.00,WinterDesignDay
8,-36.2
10,17882746.615864967
579,614345507.5718219
616,0.0
2,1, 1,21, 0, 4,40.00,50.00,WinterDesignDay
8,-36.2
10,17882746.615864967
579,614397026.8322766
616,0.0
2,1, 1,21, 0, 4,50.00,60.00,WinterDesignDay
8,-36.2
10,17882746.615864967
579,614440779.4580572
616,0.0
2,1, 1,21, 0, 4, 0.00,60.00,WinterDesignDay
305,18.00000000000001
345,18.000000000000005
385,22.000000000000005
425,8.887977794054349
465,18.0
2,1, 1,21, 0, 5, 0.00,10.00,WinterDesignDay
8,-36.2
10,17882746.615864967
579,614477194.6422961
616,0.0
2,1, 1,21, 0, 5,10.00,20.00,WinterDesignDay
8,-36.2
10,17882746.615864967
579,614504820.199219
616,0.0
2,1, 1,21, 0, 5,20.00,30.00,WinterDesignDay
8,-36.2
10,17882746.615864967
579,614529046.8420653
616,0.0
2,1, 1,21, 0, 5,30.00,40.00,WinterDesignDay
8,-36.2
10,17882746.615864967
579,614550588.0252712
616,0.0
2,1, 1,21, 0, 5,40.00,50.00,WinterDesignDay
8,-36.2
10,17882746.615864967
579,614569153.225441
616,0.0
2,1, 1,21, 0, 5,50.00,60.00,WinterDesignDay
8,-36.2
10,17882746.615864967
579,614585115.9153557
616,0.0
2,1, 1,21, 0, 5, 0.00,60.00,WinterDesignDay
305,18.000000000000015
345,18.000000000000005
385,21.999999999999998
425,8.819321647624922
465,18.0
2,1, 1,21, 0, 6, 0.00,10.00,WinterDesignDay
8,-36.2
10,19413302.650954736
579,613591160.2185216
616,0.0
2,1, 1,21, 0, 6,10.00,20.00,WinterDesignDay
8,-36.2
10,19413302.650954736
579,613472179.1578212
616,0.0
2,1, 1,21, 0, 6,20.00,30.00,WinterDesignDay
8,-36.2
10,19413302.650954736
579,613475263.2355156
616,0.0
2,1, 1,21, 0, 6,30.00,40.00,WinterDesignDay
8,-36.2
10,19413302.650954736
579,613462150.2271915
616,0.0
2,1, 1,21, 0, 6,40.00,50.00,WinterDesignDay
8,-36.2
10,19413302.650954736
579,613450259.6002579
616,0.0
2,1, 1,21, 0, 6,50.00,60.00,WinterDesignDay
8,-36.2
10,19413302.650954736
579,613440518.8659115
616,0.0
2,1, 1,21, 0, 6, 0.00,60.00,WinterDesignDay
305,18.000000000000019
345,18.000000000000005
385,21.999999999999998
425,8.805006243182194
465,18.0
2,1, 1,21, 0, 7, 0.00,10.00,WinterDesignDay
8,-36.2
10,20943858.686044497
579,612432359.7361502
616,0.0
2,1, 1,21, 0, 7,10.00,20.00,WinterDesignDay
8,-36.2
10,20943858.686044497
579,612297587.3276475
616,0.0
2,1, 1,21, 0, 7,20.00,30.00,WinterDesignDay
8,-36.2
10,20943858.686044497
579,612276978.1916266
616,0.0
2,1, 1,21, 0, 7,30.00,40.00,WinterDesignDay
8,-36.2
10,20943858.686044497
579,612244916.0282137
616,0.0
2,1, 1,21, 0, 7,40.00,50.00,WinterDesignDay
8,-36.2
10,20943858.686044497
579,612217227.7769575
616,0.0
2,1, 1,21, 0, 7,50.00,60.00,WinterDesignDay
8,-36.2
10,20943858.686044497
579,612193490.0211494
616,0.0
2,1, 1,21, 0, 7, 0.00,60.00,WinterDesignDay
305,18.000000000000015
345,18.000000000000005
385,22.0
425,8.900904024796187
465,18.000000000000005
2,1, 1,21, 0, 8, 0.00,10.00,WinterDesignDay
8,-36.2
10,22474414.721134265
579,688417899.5450963
616,0.0
2,1, 1,21, 0, 8,10.00,20.00,WinterDesignDay
8,-36.2
10,22474414.721134265
579,591174740.6937975
616,0.0
2,1, 1,21, 0, 8,20.00,30.00,WinterDesignDay
8,-36.2
10,22474414.721134265
579,651225724.8899386
616,0.0
2,1, 1,21, 0, 8,30.00,40.00,WinterDesignDay
8,-36.2
10,22474414.721134265
579,640291246.1446992
616,0.0
2,1, 1,21, 0, 8,40.00,50.00,WinterDesignDay
8,-36.2
10,22474414.721134265
579,637899497.2203553
616,0.0
2,1, 1,21, 0, 8,50.00,60.00,WinterDesignDay
8,-36.2
10,22474414.721134265
579,638040727.5324884
616,0.0
2,1, 1,21, 0, 8, 0.00,60.00,WinterDesignDay
305,20.070116028001473
345,18.000000000000005
385,22.0
425,9.108153905404985
465,19.995664839153773
2,1, 1,21, 0, 9, 0.00,10.00,WinterDesignDay
8,-36.2
10,27122353.268870098
579,708450415.6184886
616,0.0
2,1, 1,21, 0, 9,10.00,20.00,WinterDesignDay
8,-36.2
10,27122353.268870098
579,610912998.1410209
616,0.0
2,1, 1,21, 0, 9,20.00,30.00,WinterDesignDay
8,-36.2
10,27122353.268870098
579,677247952.2822929
616,0.0
2,1, 1,21, 0, 9,30.00,40.00,WinterDesignDay
8,-36.2
10,27122353.268870098
579,659541665.1408722
616,0.0
2,1, 1,21, 0, 9,40.00,50.00,WinterDesignDay
8,-36.2
10,27122353.268870098
579,659752196.0246232
616,0.0
2,1, 1,21, 0, 9,50.00,60.00,WinterDesignDay
8,-36.2
10,27122353.268870098
579,659318757.1269801
616,0.0
2,1, 1,21, 0, 9, 0.00,60.00,WinterDesignDay
305,22.038959881156683
345,18.000000000000008
385,22.0
425,9.303643949666246