Program Version,EnergyPlus, Version 8.9.0-eba93e8e1b, YMD=2019.03.28 14:18
1,5,Environment Title[],Latitude[deg],Longitude[deg],Time Zone[],Elevation[m]
2,8,Day of Simulation[],Month[],Day of Month[],DST Indicator[1=yes 0=no],Hour[],StartMinute[],EndMinute[],DayType
3,5,Cumulative Day of Simulation[],Month[],Day of Month[],DST Indicator[1=yes 0=no],DayType  ! When Daily Report Variables Requested
4,2,Cumulative Days of Simulation[],Month[]  ! When Monthly Report Variables Requested
5,1,Cumulative Days of Simulation[] ! When Run Period Report Variables Requested
6,1,Calendar Year of Simulation[] ! When Annual Report Variables Requested
7,9,Environment,Site Outdoor Air Drybulb Temperature [C] !Monthly [Value,Min,Day,Hour,Minute,Max,Day,Hour,Minute]
8,1,Environment,Site Outdoor Air Wetbulb Temperature [C] !TimeStep
914,1,AUDIENCE SEATING AREA PERMANENT - OTHER-SCH-H-SPACE FUNCTION ZN,Zone Air Temperature [C] !Hourly
915,7,AUDIENCE SEATING AREA PERMANENT - OTHER-SCH-H-SPACE FUNCTION ZN,Zone Air Relative Humidity [%] !Daily [Value,Min,Hour,Minute,Max,Hour,Minute]
954,1,AUDIENCE SEATING AREA PERMANENT - OTHER-SCH-I-SPACE FUNCTION ZN,Zone Air Temperature [C] !Hourly
955,7,AUDIENCE SEATING AREA PERMANENT - OTHER-SCH-I-SPACE FUNCTION ZN,Zone Air Relative Humidity [%] !Daily [Value,Min,Hour,Minute,Max,Hour,Minute]
994,1,AUDIENCE SEATING AREA PERMANENT - OTHER-SCH-J-SPACE FUNCTION ZN,Zone Air Temperature [C] !Hourly
995,7,AUDIENCE SEATING AREA PERMANENT - OTHER-SCH-J-SPACE FUNCTION ZN,Zone Air Relative Humidity [%] !Daily [Value,Min,Hour,Minute,Max,Hour,Minute]
1034,1,AUDIENCE SEATING AREA PERMANENT - OTHER-SCH-K-SPACE FUNCTION ZN,Zone Air Temperature [C] !Hourly
1035,7,AUDIENCE SEATING AREA PERMANENT - OTHER-SCH-K-SPACE FUNCTION ZN,Zone Air Relative Humidity [%] !Daily [Value,Min,Hour,Minute,Max,Hour,Minute]
1074,1,BANKING ACTIVITY AREA AND OFFICES-SPACE FUNCTION ZN,Zone Air Temperature [C] !Hourly
1075,7,BANKING ACTIVITY AREA AND OFFICES-SPACE FUNCTION ZN,Zone Air Relative Humidity [%] !Daily [Value,Min,Hour,Minute,Max,Hour,Minute]
1114,1,CLASSROOM/LECTURE HALL/TRAINING ROOM - PENITENTARY-SPACE FUNCTION ZN,Zone Air Temperature [C] !Hourly
1115,7,CLASSROOM/LECTURE HALL/TRAINING ROOM - PENITENTARY-SPACE FUNCTION ZN,Zone Air Relative Humidity [%] !Daily [Value,Min,Hour,Minute,Max,Hour,Minute]
1154,1,CLASSROOM/LECTURE HALL/TRAINING ROOM OTHER-SPACE FUNCTION ZN,Zone Air Temperature [C] !Hourly
1155,7,CLASSROOM/LECTURE HALL/TRAINING ROOM OTHER-SPACE FUNCTION ZN,Zone Air Relative Humidity [%] !Daily [Value,Min,Hour,Minute,Max,Hour,Minute]
1194,1,CONFERENCE/MEETING/MULTI-PURPOSE ROOM-SPACE FUNCTION ZN,Zone Air Temperature [C] !Hourly
1195,7,CONFERENCE/MEETING/MULTI-PURPOSE ROOM-SPACE FUNCTION ZN,Zone Air Relative Humidity [%] !Daily [Value,Min,Hour,Minute,Max,Hour,Minute]
1234,1,CONFINEMENT CELL-SPACE FUNCTION ZN,Zone Air Temperature [C] !Hourly
1235,7,CONFINEMENT CELL-SPACE FUNCTION ZN,Zone Air Relative Humidity [%] !Daily [Value,Min,Hour,Minute,Max,Hour,Minute]
1274,1,COPY/PRINT ROOM-SPACE FUNCTION ZN,Zone Air Temperature [C] !Hourly
1275,7,COPY/PRINT ROOM-SPACE FUNCTION ZN,Zone Air Relative Humidity [%] !Daily [Value,Min,Hour,Minute,Max,Hour,Minute]
1314,1,COURTROOM-SPACE FUNCTION ZN,Zone Air Temperature [C] !Hourly
1315,7,COURTROOM-SPACE FUNCTION ZN,Zone Air Relative Humidity [%] !Daily [Value,Min,Hour,Minute,Max,Hour,Minute]
1354,1,DINING AREA - BAR LOUNGE/LEISURE DINING-SPACE FUNCTION ZN,Zone Air Temperature [C] !Hourly
1355,7,DINING AREA - BAR LOUNGE/LEISURE DINING-SPACE FUNCTION ZN,Zone Air Relative Humidity [%] !Daily [Value,Min,Hour,Minute,Max,Hour,Minute]
1394,1,DINING AREA - CAFETERIA/FAST FOOD DINING-SPACE FUNCTION ZN,Zone Air Temperature [C] !Hourly
1395,7,DINING AREA - CAFETERIA/FAST FOOD DINING-SPACE FUNCTION ZN,Zone Air Relative Humidity [%] !Daily [Value,Min,Hour,Minute,Max,Hour,Minute]
1434,1,DINING AREA - FAMILY DINING-SPACE FUNCTION ZN,Zone Air Temperature [C] !Hourly
1435,7,DINING AREA - FAMILY DINING-SPACE FUNCTION ZN,Zone Air Relative Humidity [%] !Daily [Value,Min,Hour,Minute,Max,Hour,Minute]
1474,1,DINING AREA - OTHER-SPACE FUNCTION ZN,Zone Air Temperature [C] !Hourly
1475,7,DINING AREA - OTHER-SPACE FUNCTION ZN,Zone Air Relative Humidity [%] !Daily [Value,Min,Hour,Minute,Max,Hour,Minute]
1514,1,DINING AREA - PENITENTIARY-SPACE FUNCTION ZN,Zone Air Temperature [C] !Hourly
1515,7,DINING AREA - PENITENTIARY-SPACE FUNCTION ZN,Zone Air Relative Humidity [%] !Daily [Value,Min,Hour,Minute,Max,Hour,Minute]
1554,1,DINING AREA - SPACE DESIGNED TO ANSI/IES RP-28 (USED PRIMARILY BY RESIDENTS)-SPACE FUNCTION ZN,Zone Air Temperature [C] !Hourly
1555,7,DINING AREA - SPACE DESIGNED TO ANSI/IES RP-28 (USED PRIMARILY BY RESIDENTS)-SPACE FUNCTION ZN,Zone Air Relative Humidity [%] !Daily [Value,Min,Hour,Minute,Max,Hour,Minute]
1594,1,DRESSING/FITTING ROOM - PERFORMING ARTS THEATRE-SPACE FUNCTION ZN,Zone Air Temperature [C] !Hourly
1595,7,DRESSING/FITTING ROOM - PERFORMING ARTS THEATRE-SPACE FUNCTION ZN,Zone Air Relative Humidity [%] !Daily [Value,Min,Hour,Minute,Max,Hour,Minute]
1634,1,EMERGENCY VEHICLE GARAGE-SPACE FUNCTION ZN,Zone Air Temperature [C] !Hourly
1635,7,EMERGENCY VEHICLE GARAGE-SPACE FUNCTION ZN,Zone Air Relative Humidity [%] !Daily [Value,Min,Hour,Minute,Max,Hour,Minute]
1674,1,FOOD PREPARATION AREA-SPACE FUNCTION ZN,Zone Air Temperature [C] !Hourly
1675,7,FOOD PREPARATION AREA-SPACE FUNCTION ZN,Zone Air Relative Humidity [%] !Daily [Value,Min,Hour,Minute,Max,Hour,Minute]
10,1,Electricity:Facility [J] !TimeStep
1825,1,DistrictCooling:Facility [J] !TimeStep
1788,1,DistrictHeating:Facility [J] !TimeStep
End of Data Dictionary
1,FORT MCMURRAY AP ANN CLG .4% CONDNS DB=>MWB,  56.65,-111.22,  -7.00, 369.10
2,1, 7,21, 0, 1, 0.00,10.00,SummerDesignDay
8,14.218136923962174
10,147424567.1257099
1788,3772553.909137139
1825,13819437.086134794
2,1, 7,21, 0, 1,10.00,20.00,SummerDesignDay
8,14.171982153293495
10,147424567.1257099
1788,5828291.311908765
1825,12914736.261893236
2,1, 7,21, 0, 1,20.00,30.00,SummerDesignDay
8,14.125744780286427
10,147424567.1257099
1788,10352997.1044747
1825,12517533.097182218
2,1, 7,21, 0, 1,30.00,40.00,SummerDesignDay
8,14.079436086331978
10,147424567.1257099
1788,14401902.754774722
1825,12118199.004660985
2,1, 7,21, 0, 1,40.00,50.00,SummerDesignDay
8,14.033050387896898
10,147424567.1257099
1788,17860359.696988368
1825,11717121.42763787
2,1, 7,21, 0, 1,50.00,60.00,SummerDesignDay
8,13.986581233564835
10,147424567.1257099
1788,22028467.201374599
1825,11314663.38352979
2,1, 7,21, 0, 1, 0.00,60.00,SummerDesignDay
914,22.68394802789528
954,21.128838233750107
994,22.498577219353199
1034,21.859375855781008
1074,24.400854081806686
1114,22.038940896125469
1154,22.654344881392249
1194,22.11104470466314
1234,23.946348628606136
1274,23.64634090662423
1314,22.02131715275769
1354,22.059812730310715
1394,22.000125524266797
1434,22.088582917806318
1474,22.002533367695397
1514,22.987935956224989
1554,22.995374683242518
1594,23.651174896681053
1634,22.04000250015375
1674,24.000000000000019
2,1, 7,21, 0, 2, 0.00,10.00,SummerDesignDay
8,13.95555882260429
10,96449614.00237966
1788,35630881.51142693
1825,0.0
2,1, 7,21, 0, 2,10.00,20.00,SummerDesignDay
8,13.924507755336454
10,96449614.00237966
1788,38912182.00390219
1825,0.0
2,1, 7,21, 0, 2,20.00,30.00,SummerDesignDay
8,13.893416042989206
10,96449614.00237966
1788,41583808.17109727
1825,0.0
2,1, 7,21, 0, 2,30.00,40.00,SummerDesignDay
8,13.862289589689029
10,96449614.00237966
1788,45487017.549060638
1825,0.0
2,1, 7,21, 0, 2,40.00,50.00,SummerDesignDay
8,13.831134407608739
10,96449614.00237966
1788,49245145.06248009
1825,0.0
2,1, 7,21, 0, 2,50.00,60.00,SummerDesignDay
8,13.799938415548118
10,96449614.00237966
1788,52853718.99119442
1825,0.0
2,1, 7,21, 0, 2, 0.00,60.00,SummerDesignDay
914,22.216656595279088
954,20.128470179201984
994,22.04312504008679
1034,21.446450119032194
1074,24.114188517525539
1114,21.612691507136117
1154,22.227586707267038
1194,21.6418176168249
1234,23.546611788233766
1274,23.260578114825547
1314,21.659960180227914
1354,22.00000344735037
1394,22.00000000279651
1434,22.000018430065138
1474,22.000000012965939
1514,22.27033230488638
1554,22.15363785238087
1594,23.4736547461864
1634,21.580206383026807
1674,24.244798866004346
2,1, 7,21, 0, 3, 0.00,10.00,SummerDesignDay
8,13.776521671948676
10,50740483.77274212
1788,3037584.9095188186
1825,0.0
2,1, 7,21, 0, 3,10.00,20.00,SummerDesignDay
8,13.753085235778466
10,50740483.77274212
1788,3557398.5356987018
1825,0.0
2,1, 7,21, 0, 3,20.00,30.00,SummerDesignDay
8,13.729636002354969
10,50740483.77274212
1788,4082549.823700791
1825,0.0
2,1, 7,21, 0, 3,30.00,40.00,SummerDesignDay
8,13.706147375533054
10,50740483.77274212
1788,4607913.936705191
1825,0.0
2,1, 7,21, 0, 3,40.00,50.00,SummerDesignDay
8,13.682651961920304
10,50740483.77274212
1788,5124878.65128513
1825,0.0
2,1, 7,21, 0, 3,50.00,60.00,SummerDesignDay
8,13.659136670643687
10,50740483.77274212
1788,5631257.717035526
1825,0.0
2,1, 7,21, 0, 3, 0.00,60.00,SummerDesignDay
914,21.876961583869883
954,19.611426241411725
994,22.000000829434467
1034,21.128557340988427
1074,23.88512650637561
1114,21.279051478175519
1154,21.895419810527657
1194,21.294065439024057
1234,23.268099844144549
1274,22.971050814112407
1314,21.394971704348547
1354,20.411020366169966
1394,20.670101401686386
1434,20.974358616479596
1474,20.738139386449985
1514,21.645090742750495
1554,21.342824233183518
1594,23.32857581729623
1634,21.23702784819665
1674,23.54627154291975
2,1, 7,21, 0, 4, 0.00,10.00,SummerDesignDay
8,13.63560137410855
10,50740483.77274212
1788,6130990.439201309
1825,0.0
2,1, 7,21, 0, 4,10.00,20.00,SummerDesignDay
8,13.612040802606578
10,50740483.77274212
1788,6626140.649075622
1825,0.0
2,1, 7,21, 0, 4,20.00,30.00,SummerDesignDay
8,13.58846620506876
10,50740483.77274212
1788,7116608.015458022
1825,0.0
2,1, 7,21, 0, 4,30.00,40.00,SummerDesignDay
8,13.56487178447336
10,50740483.77274212
1788,7602204.0496752089
1825,0.0
2,1, 7,21, 0, 4,40.00,50.00,SummerDesignDay
8,13.541257354069103
10,50740483.77274212
1788,8083242.424213834
1825,0.0
2,1, 7,21, 0, 4,50.00,60.00,SummerDesignDay
8,13.517617463812285
10,50740483.77274212
1788,8560345.04366394
1825,0.0
2,1, 7,21, 0, 4, 0.00,60.00,SummerDesignDay
914,21.54388836000504
954,19.19396793878382
994,22.000000000001035
1034,20.787878970463479
1074,23.61954884205761
1114,20.933619590901217
1154,21.551102462051025
1194,20.93225436581562
1234,23.00170262227086
1274,22.667225060829684
1314,21.117924686430084
1354,19.536419943176069
1394,20.08691838171632
1434,20.419367901247097
1474,20.107248963412784
1514,21.223751957512389
1554,20.87203596036398
1594,23.134874096928458
1634,20.928604916806234
1674,23.010642200705303
2,1, 7,21, 0, 5, 0.00,10.00,SummerDesignDay
8,13.50185415824011
10,50740483.77274212
1788,8922411.930808085
1825,0.0
2,1, 7,21, 0, 5,10.00,20.00,SummerDesignDay
8,13.486076034032447
10,50740483.77274212
1788,9084366.62038633
1825,0.0
2,1, 7,21, 0, 5,20.00,30.00,SummerDesignDay
8,13.470289340350983
10,50740483.77274212
1788,9282582.483922458
1825,0.0
2,1, 7,21, 0, 5,30.00,40.00,SummerDesignDay
8,13.454493322631063
10,50740483.77274212
1788,9488054.608412544
1825,0.0
2,1, 7,21, 0, 5,40.00,50.00,SummerDesignDay
8,13.438688835118548
10,50740483.77274212
1788,9677099.62913442
1825,0.0
2,1, 7,21, 0, 5,50.00,60.00,SummerDesignDay
8,13.422888173889437
10,50740483.77274212
1788,9849865.974219829
1825,0.0
2,1, 7,21, 0, 5, 0.00,60.00,SummerDesignDay
914,21.45906486794179
954,18.98365478908885
994,21.999999999999969
1034,20.478530796040748
1074,23.378530451433066
1114,20.6833300661235
1154,21.25371757725557
1194,20.674405304255335
1234,22.860560728614208
1274,22.40104200236772
1314,20.878519217305514
1354,19.20633328035291
1394,19.870653047609
1434,20.137167779005194
1474,19.812890843288
1514,20.923843124455386
1554,20.58395244766974
1594,22.951430842348846
1634,20.716986435500659
1674,22.74182879742247
2,1, 7,21, 0, 6, 0.00,10.00,SummerDesignDay
8,13.438688835118548
10,51888400.79905944
1788,8927651.591062185
1825,0.0
2,1, 7,21, 0, 6,10.00,20.00,SummerDesignDay
8,13.454493322631063
10,51888400.79905944
1788,8516793.552850355
1825,0.0
2,1, 7,21, 0, 6,20.00,30.00,SummerDesignDay
8,13.470289340350983
10,51888400.79905944
1788,8169120.983042452
1825,0.0
2,1, 7,21, 0, 6,30.00,40.00,SummerDesignDay
8,13.486076034032447
10,51888400.79905944
1788,7808485.251530665
1825,0.0
2,1, 7,21, 0, 6,40.00,50.00,SummerDesignDay
8,13.50185415824011
10,51888400.79905944
1788,7448899.893707222
1825,0.0
2,1, 7,21, 0, 6,50.00,60.00,SummerDesignDay
8,13.517617463812285
10,51888400.79905944
1788,7084740.474143046
1825,0.0
2,1, 7,21, 0, 6, 0.00,60.00,SummerDesignDay
914,22.047802241802019
954,19.103560384021468
994,22.000000000000026
1034,20.44947382618142
1074,23.217138412810315
1114,20.597751529637283
1154,21.097643130377614
1194,20.695807540860846
1234,23.139755905946847
1274,22.25703285923831
1314,20.750829872882805
1354,19.167850785066944
1394,20.032424048622557
1434,20.00826785865394
1474,19.682654039291387
1514,20.781495251224809
1554,20.449301939655795
1594,22.81043737062272
1634,20.67549987015403
1674,22.584669803411726
2,1, 7,21, 0, 7, 0.00,10.00,SummerDesignDay
8,13.572736920571789
10,54993802.20909553
1788,5538458.612013083
1825,0.0
2,1, 7,21, 0, 7,10.00,20.00,SummerDesignDay
8,13.627748229152554
10,54993802.20909553
1788,4496389.910824029
1825,0.0
2,1, 7,21, 0, 7,20.00,30.00,SummerDesignDay
8,13.682651961920304
10,54993802.20909553
1788,3508773.9142660608
1825,0.0
2,1, 7,21, 0, 7,30.00,40.00,SummerDesignDay
8,13.737448093244995
10,54993802.20909553
1788,2499082.795771459
1825,0.0
2,1, 7,21, 0, 7,40.00,50.00,SummerDesignDay
8,13.792137011831216
10,54993802.20909553
1788,1468527.5441341617
1825,0.0
2,1, 7,21, 0, 7,50.00,60.00,SummerDesignDay
8,13.846719282840333
10,54993802.20909553
1788,414742.0165514379
1825,0.0
2,1, 7,21, 0, 7, 0.00,60.00,SummerDesignDay
914,22.937090179704474
954,19.418361580616236
994,22.000000000000015
1034,21.11822211473448
1074,23.199569282273179
1114,20.66678410700017
1154,21.197018306324478
1194,21.06763139972839
1234,23.712693434272368
1274,22.359513798406185
1314,20.84457272480385
1354,19.547111598928308
1394,20.484259027597234
1434,20.170096196733465
1474,19.863541468671259
1514,20.915811012630809
1554,20.59624249852507
1594,22.76419512129085
1634,20.82793989451139
1674,22.599952952532104
2,1, 7,21, 0, 8, 0.00,10.00,SummerDesignDay
8,13.978831900527043
10,74630952.78157714
1788,16509712.150244626
1825,2413489.5995948656
2,1, 7,21, 0, 8,10.00,20.00,SummerDesignDay
8,14.110321014287419
10,74630952.78157714
1788,245431.4863926268
1825,4109234.4125387587
2,1, 7,21, 0, 8,20.00,30.00,SummerDesignDay
8,14.241191509616986
10,74630952.78157714
1788,7031191.898719096
1825,7240920.5220095249
2,1, 7,21, 0, 8,30.00,40.00,SummerDesignDay
8,14.371447531304272
10,74630952.78157714
1788,0.0
1825,17243375.28087022
2,1, 7,21, 0, 8,40.00,50.00,SummerDesignDay
8,14.501093766564925
10,74630952.78157714
1788,0.0
1825,19547734.66850809
2,1, 7,21, 0, 8,50.00,60.00,SummerDesignDay
8,14.630134792273804
10,74630952.78157714
1788,0.0
1825,24972865.874698424
2,1, 7,21, 0, 8, 0.00,60.00,SummerDesignDay
914,23.8638179819956
954,20.37913142556862
994,22.396022089768878
1034,22.27550266533973
1074,23.610070692122805
1114,21.16931615681721
1154,21.703353066681655
1194,21.902239725917423
1234,23.999571840388815
1274,23.357899314579624
1314,22.126577159059747
1354,20.536427185803875
1394,21.355164598921097
1434,20.800678644694249
1474,20.529896942903045
1514,21.4999857358474
1554,21.197957704893896
1594,22.878511373933525
1634,21.465366406382655
1674,22.884661325933278
2,1, 7,21, 0, 9, 0.00,10.00,SummerDesignDay
8,14.773641492809972
10,148516398.90973855
1788,6386705.692694312
1825,67420852.9319152
2,1, 7,21, 0, 9,10.00,20.00,SummerDesignDay
8,14.91640948124148
10,148516398.90973855
1788,0.0
1825,79991770.2004951
2,1, 7,21, 0, 9,20.00,30.00,SummerDesignDay
8,15.05843890714102
10,148516398.90973855
1788,0.0
1825,90244040.94441065
2,1, 7,21, 0, 9,30.00,40.00,SummerDesignDay
8,15.199735893563798
10,148516398.90973855
1788,0.0
1825,108173982.82544698
2,1, 7,21, 0, 9,40.00,50.00,SummerDesignDay
8,15.340306256439395
10,148516398.90973855
1788,0.0
1825,126125449.48359795
2,1, 7,21, 0, 9,50.00,60.00,SummerDesignDay
8,15.48015101768072
10,148516398.90973855
1788,0.0
1825,142531535.66323684
2,1, 7,21, 0, 9, 0.00,60.00,SummerDesignDay
914,23.999998165900498
954,22.05100083132999
994,23.63367170206349
1034,23.20567544062496
1074,23.999869740546346
1114,22.566515251040174
1154,22.900283743974854
1194,23.63118622886759
1234,23.999999999999614
1274,23.999769208682087
1314,23.761444450497135
1354,22.194318756441079
1394,22.652991254422774
1434,21.945760055001345
1474,21.72406239164093
1514,22.569450994900494
1554,22.28622936864903
1594,23.58484335346185
1634,22.63283200029363
1674,23.503446417246079
2,1, 7,21, 0,10, 0.00,10.00,SummerDesignDay
8,15.60467292907716
10,235907978.8160409
1788,0.0
1825,193220755.57070018
2,1, 7,21, 0,10,10.00,20.00,SummerDesignDay
8,15.72862731650033
10,235907978.8160409
1788,0.0
1825,224159936.42438323
2,1, 7,21, 0,10,20.00,30.00,SummerDesignDay
8,15.852017409284228
10,235907978.8160409
1788,0.0
1825,260048458.36533148
2,1, 7,21, 0,10,30.00,40.00,SummerDesignDay
8,15.974848118364367
10,235907978.8160409
1788,0.0
1825,303724799.4284005
2,1, 7,21, 0,10,40.00,50.00,SummerDesignDay
8,16.097123145563505
10,235907978.8160409
1788,0.0
1825,337612398.75412788
2,1, 7,21, 0,10,50.00,60.00,SummerDesignDay
8,16.218846351168599
10,235907978.8160409
1788,0.0
1825,376677048.5477685
2,1, 7,21, 0,10, 0.00,60.00,SummerDesignDay
914,23.99999999999996
954,23.851084724972027
994,23.999996373700978
1034,24.007480630229037
1074,24.000000000000019
1114,23.93700022623247
1154,23.98116829838848
1194,23.999999972373617
1234,24.0
1274,23.999999999999035
1314,23.999999975262797
1354,23.82695262401643
1394,23.859541391543769
1434,23.45596525115418
1474,23.300448924216629
1514,23.80869673878514
1554,23.742529923445564
1594,23.999981525048758
1634,23.781762864307454
1674,23.9974499969204
2,1, 7,21, 0,11, 0.00,10.00,SummerDesignDay
8,16.325793027093189
10,262550626.58311124
1788,0.0
1825,439580538.4589084
2,1, 7,21, 0,11,10.00,20.00,SummerDesignDay
8,16.432322158488288
10,262550626.58311124
1788,0.0
1825,472724991.23072949
2,1, 7,21, 0,11,20.00,30.00,SummerDesignDay
8,16.538424180249178
10,262550626.58311124
1788,0.0
1825,506220278.3947954
2,1, 7,21, 0,11,30.00,40.00,SummerDesignDay
8,16.644108396469087
10,262550626.58311124
1788,0.0
1825,538754556.0891422
2,1, 7,21, 0,11,40.00,50.00,SummerDesignDay
8,16.749376736593655
10,262550626.58311124
1788,0.0
1825,569737979.4078038
2,1, 7,21, 0,11,50.00,60.00,SummerDesignDay
8,16.854232613237156
10,262550626.58311124
1788,0.0
1825,599940252.580173
2,1, 7,21, 0,11, 0.00,60.00,SummerDesignDay
914,24.000000000000097
954,25.594268050819264
994,23.999999999998964
1034,25.28407904171735
1074,24.0
1114,23.999999989822006
1154,23.999999999048954
1194,24.000000000000019
1234,24.00000000000001
1274,24.00000000000009
1314,23.99999999999996
1354,23.999999790184419
1394,23.999999172518498
1434,23.999835829753704
1474,23.99838079105494
1514,23.999999370186847
1554,23.999998756822277
1594,24.000000000000005
1634,23.999997534506915
1674,23.99999999999889
2,1, 7,21, 0,12, 0.00,10.00,SummerDesignDay
8,16.92390823520069
10,284887503.62723788
1788,0.0
1825,650788209.8293738
2,1, 7,21, 0,12,10.00,20.00,SummerDesignDay
8,16.99340178950456
10,284887503.62723788
1788,0.0
1825,672469798.9580468
2,1, 7,21, 0,12,20.00,30.00,SummerDesignDay
8,17.06272006743463
10,284887503.62723788
1788,0.0
1825,693232488.7874497
2,1, 7,21, 0,12,30.00,40.00,SummerDesignDay
8,17.131853229172639
10,284887503.62723788
1788,0.0
1825,714032206.0006688
2,1, 7,21, 0,12,40.00,50.00,SummerDesignDay
8,17.200807172194087
10,284887503.62723788
1788,0.0
1825,734743103.0801905
2,1, 7,21, 0,12,50.00,60.00,SummerDesignDay
8,17.269582116758607
10,284887503.62723788
1788,0.0
1825,755396766.8598181
2,1, 7,21, 0,12, 0.00,60.00,SummerDesignDay
914,24.000000000000026
954,26.955519746865766
994,24.000000000000044
1034,26.298468749170323
1074,24.000000000000015
1114,23.99999999999976
1154,23.999999999999959
1194,23.999999999999998
1234,24.000000000000005
1274,24.000000000000115
1314,24.000000000000026
1354,23.999999999987677
1394,23.999999999796925
1434,23.999999983295824
1474,23.999999807231374
1514,23.99999999995573
1554,23.99999999989423
1594,24.00000000000001
1634,23.99999999970167
1674,24.000000000000026
2,1, 7,21, 0,13, 0.00,10.00,SummerDesignDay
8,17.32447360221357
10,284257274.6716127
1788,0.0
1825,786219043.4687598
2,1, 7,21, 0,13,10.00,20.00,SummerDesignDay
8,17.379251291230806
10,284257274.6716127
1788,0.0
1825,802589025.9823618
2,1, 7,21, 0,13,20.00,30.00,SummerDesignDay
8,17.433921312061729
10,284257274.6716127
1788,0.0
1825,818536363.7642839
2,1, 7,21, 0,13,30.00,40.00,SummerDesignDay
8,17.488473222557489
10,284257274.6716127
1788,0.0
1825,834446209.6506763
2,1, 7,21, 0,13,40.00,50.00,SummerDesignDay
8,17.542913447755134
10,284257274.6716127
1788,0.0
1825,849957765.5455586
2,1, 7,21, 0,13,50.00,60.00,SummerDesignDay
8,17.59724609886134
10,284257274.6716127
1788,0.0
1825,864640595.2607834
2,1, 7,21, 0,13, 0.00,60.00,SummerDesignDay
914,23.99999999999996
954,27.95494185493472
994,23.999999999999998
1034,27.02123492742808
1074,24.00000000000001
1114,24.000000000000026
1154,24.00000000000001
1194,23.999999999999976
1234,24.0
1274,24.000000000000058
1314,24.0
1354,24.000000000000019
1394,23.99999999999994
1434,23.999999999998495
1474,23.999999999979285
1514,24.000000000000005
1554,24.00000000000001
1594,24.000000000000015
1634,23.999999999999959
1674,24.00000000000003
2,1, 7,21, 0,14, 0.00,10.00,SummerDesignDay
8,17.6311450462694
10,284257274.6716127
1788,0.0
1825,869780457.8048748
2,1, 7,21, 0,14,10.00,20.00,SummerDesignDay
8,17.665000449016245
10,284257274.6716127
1788,0.0
1825,879162919.0175482
2,1, 7,21, 0,14,20.00,30.00,SummerDesignDay
8,17.698812743128934
10,284257274.6716127
1788,0.0
1825,888495707.3126017
2,1, 7,21, 0,14,30.00,40.00,SummerDesignDay
8,17.732582050940107
10,284257274.6716127
1788,0.0
1825,897729771.265051
2,1, 7,21, 0,14,40.00,50.00,SummerDesignDay
8,17.766307345121004
10,284257274.6716127
1788,0.0
1825,906926353.016854
2,1, 7,21, 0,14,50.00,60.00,SummerDesignDay
8,17.79999023167558
10,284257274.6716127
1788,0.0
1825,916201001.7059968
2,1, 7,21, 0,14, 0.00,60.00,SummerDesignDay
914,24.0
954,28.696481731290903
994,24.00000000000003
1034,27.5755998637693
1074,24.00000000000004
1114,23.999999999999998
1154,24.000000000000033
1194,24.000000000000019
1234,24.00000000000001
1274,23.99999999999999
1314,24.0
1354,24.00000000000007
1394,24.000000000000019
1434,24.000000000000019
1474,23.99999999999999
1514,23.99999999999999
1554,24.000000000000015
1594,24.000000000000019
1634,24.000000000000019
1674,24.0
2,1, 7,21, 0,15, 0.00,10.00,SummerDesignDay
8,17.79999023167558
10,284369815.55654576
1788,0.0
1825,1023461071.7095219
2,1, 7,21, 0,15,10.00,20.00,SummerDesignDay
8,17.79999023167558
10,284369815.55654576
1788,0.0
1825,914586450.4143647
2,1, 7,21, 0,15,20.00,30.00,SummerDesignDay
8,17.79999023167558
10,284369815.55654576
1788,0.0
1825,980361523.555507
2,1, 7,21, 0,15,30.00,40.00,SummerDesignDay
8,17.79999023167558
10,284369815.55654576
1788,0.0
1825,974060691.0600085
2,1, 7,21, 0,15,40.00,50.00,SummerDesignDay
8,17.79999023167558
10,284369815.55654576
1788,0.0
1825,972789634.2894137
2,1, 7,21, 0,15,50.00,60.00,SummerDesignDay
8,17.79999023167558
10,284369815.55654576
1788,0.0
1825,974208856.3528438
2,1, 7,21, 0,15, 0.00,60.00,SummerDesignDay
914,23.999999999999987
954,23.8926815731224
994,24.000000000000058
1034,27.864478409687267
1074,24.000000000000044
1114,23.999999999999976
1154,24.000000000000015
1194,24.0
1234,24.0
1274,24.000000000000058
1314,23.999999999999976
1354,24.000000000000015
1394,24.00000000000001
1434,24.00000000000001
1474,24.000000000000005
1514,24.0
1554,24.0
1594,24.00000000000001
1634,24.0
1674,24.000000000000055
2,1, 7,21, 0,16, 0.00,10.00,SummerDesignDay
8,17.759562446305357
10,286811952.75959339
1788,0.0
1825,954813213.166124
2,1, 7,21, 0,16,10.00,20.00,SummerDesignDay
8,17.71907809634183
10,286811952.75959339
1788,0.0
1825,945769854.978642
2,1, 7,21, 0,16,20.00,30.00,SummerDesignDay
8,17.67853788661001
10,286811952.75959339
1788,0.0
1825,936071307.4382147
2,1, 7,21, 0,16,30.00,40.00,SummerDesignDay
8,17.63791796367351
10,286811952.75959339
1788,0.0
1825,926031681.1604413
2,1, 7,21, 0,16,40.00,50.00,SummerDesignDay
8,17.59724609886134
10,286811952.75959339
1788,0.0
1825,915668101.322037
2,1, 7,21, 0,16,50.00,60.00,SummerDesignDay
8,17.55650676726033
10,286811952.75959339
1788,0.0
1825,905149829.2330648
2,1, 7,21, 0,16, 0.00,60.00,SummerDesignDay
914,24.000000000000104
954,23.999976173863219
994,23.99999999999996
1034,27.809294085708105
1074,24.000000000000015
1114,24.00000000000001
1154,24.000000000000005
1194,23.999999999999959
1234,24.000000000000005
1274,24.000000000000069
1314,23.99999999999997
1354,23.99999999999996
1394,24.000000000000005
1434,24.000000000000015
1474,24.00000000000001
1514,24.0
1554,24.000000000000005
1594,24.000000000000019
1634,23.99999999999999
1674,23.99999999999999
2,1, 7,21, 0,17, 0.00,10.00,SummerDesignDay
8,17.50209486331892
10,278891140.4048413
1788,0.0
1825,884754675.4978724
2,1, 7,21, 0,17,10.00,20.00,SummerDesignDay
8,17.447570789624618
10,278891140.4048413
1788,0.0
1825,870277800.7296921
2,1, 7,21, 0,17,20.00,30.00,SummerDesignDay
8,17.392929544208135
10,278891140.4048413
1788,0.0
1825,855924491.9418763
2,1, 7,21, 0,17,30.00,40.00,SummerDesignDay
8,17.33818013976614
10,278891140.4048413
1788,0.0
1825,841485621.4630095
2,1, 7,21, 0,17,40.00,50.00,SummerDesignDay
8,17.283317298559309
10,278891140.4048413
1788,0.0
1825,826841317.7079507
2,1, 7,21, 0,17,50.00,60.00,SummerDesignDay
8,17.22833552437677
10,278891140.4048413
1788,0.0
1825,811617538.2010614
2,1, 7,21, 0,17, 0.00,60.00,SummerDesignDay
914,24.000000000000076
954,23.999999998330496
994,23.999999999999998
1034,27.82871853138983
1074,24.00000000000001
1114,24.000000000000005
1154,24.000000000000019
1194,24.0
1234,24.000000000000005
1274,24.000000000000005
1314,24.000000000000044
1354,24.00000000000003
1394,24.00000000000001
1434,24.000000000000005
1474,24.0
1514,23.999999999999998
1554,24.000000000000005
1594,24.00000000000001
1634,24.000000000000005
1674,24.000000000000047
2,1, 7,21, 0,18, 0.00,10.00,SummerDesignDay
8,17.159453019160176
10,263019779.38892145
1788,0.0
1825,780614913.6136428
2,1, 7,21, 0,18,10.00,20.00,SummerDesignDay
8,17.090391773337136
10,263019779.38892145
1788,0.0
1825,759773820.0169032
2,1, 7,21, 0,18,20.00,30.00,SummerDesignDay
8,17.021151077964786
10,263019779.38892145
1788,0.0
1825,739040440.9707627
2,1, 7,21, 0,18,30.00,40.00,SummerDesignDay
8,16.951729380464653
10,263019779.38892145
1788,0.0
1825,717886905.6272521
2,1, 7,21, 0,18,40.00,50.00,SummerDesignDay
8,16.882126503829249
10,263019779.38892145
1788,0.0
1825,696629805.7011993
2,1, 7,21, 0,18,50.00,60.00,SummerDesignDay
8,16.812341807494034
10,263019779.38892145
1788,0.0
1825,675330249.4551435
2,1, 7,21, 0,18, 0.00,60.00,SummerDesignDay
914,24.00000000000004
954,23.99999999999989
994,24.000000000000044
1034,27.530413205189885
1074,24.00000000000004
1114,23.99999999999999
1154,23.999999999999987
1194,24.0
1234,24.000000000000005
1274,24.00000000000003
1314,24.0
1354,24.000000000000026
1394,24.00000000000001
1434,24.000000000000005
1474,23.999999999999998
1514,23.999999999999976
1554,23.99999999999999
1594,24.000000000000005
1634,23.99999999999999
1674,24.000000000000026
2,1, 7,21, 0,19, 0.00,10.00,SummerDesignDay
8,16.707321072823203
10,225266112.8960227
1788,0.0
1825,635173836.5624426
2,1, 7,21, 0,19,10.00,20.00,SummerDesignDay
8,16.601881826644556
10,225266112.8960227
1788,0.0
1825,602707913.0291139
2,1, 7,21, 0,19,20.00,30.00,SummerDesignDay
8,16.496030555252849
10,225266112.8960227
1788,0.0
1825,569942526.6332173
2,1, 7,21, 0,19,30.00,40.00,SummerDesignDay
8,16.389760181474104
10,225266112.8960227
1788,0.0
1825,536970673.6444936
2,1, 7,21, 0,19,40.00,50.00,SummerDesignDay
8,16.283067654262039
10,225266112.8960227
1788,0.0
1825,503477960.3815624
2,1, 7,21, 0,19,50.00,60.00,SummerDesignDay
8,16.17595057957811
10,225266112.8960227
1788,0.0
1825,468664755.29590359
2,1, 7,21, 0,19, 0.00,60.00,SummerDesignDay
914,23.99999999999999
954,24.000000000000026
994,23.999999999999934
1034,26.479891109651239
1074,24.000000000000015
1114,24.000000000000015
1154,23.999999999999959
1194,24.00000000000004
1234,24.0
1274,24.00000000000006
1314,24.0
1354,24.000000000000015
1394,24.000000000000015
1434,24.0
1474,23.999999999999998
1514,24.000000000000015
1554,23.99999999999999
1594,24.000000000000015
1634,24.00000000000001
1674,24.00000000000003
2,1, 7,21, 0,20, 0.00,10.00,SummerDesignDay
8,16.097123145563505
10,207564657.25317873
1788,0.0
1825,454510064.3643963
2,1, 7,21, 0,20,10.00,20.00,SummerDesignDay
8,16.018070242471564
10,207564657.25317873
1788,0.0
1825,428118464.1104212
2,1, 7,21, 0,20,20.00,30.00,SummerDesignDay
8,15.938779752340516
10,207564657.25317873
1788,0.0
1825,401595541.7295611
2,1, 7,21, 0,20,30.00,40.00,SummerDesignDay
8,15.85926152575189
10,207564657.25317873
1788,0.0
1825,374621535.2425305
2,1, 7,21, 0,20,40.00,50.00,SummerDesignDay
8,15.779503718563929
10,207564657.25317873
1788,0.0
1825,346891039.958882
2,1, 7,21, 0,20,50.00,60.00,SummerDesignDay
8,15.699515709672767
10,207564657.25317873
1788,0.0
1825,318453265.4777976
2,1, 7,21, 0,20, 0.00,60.00,SummerDesignDay
914,23.99999999999997
954,24.000000000000019
994,24.00000000000003
1034,25.042330086933306
1074,24.00000000000001
1114,24.000000000000019
1154,24.00000000000001
1194,23.99999999999999
1234,24.00000000000001
1274,24.00000000000001
1314,23.99999999999999
1354,23.99999999999999
1394,23.999999999999984
1434,24.0
1474,24.00000000000001
1514,24.0
1554,24.000000000000015
1594,24.000000000000005
1634,24.00000000000001
1674,24.00000000000003