Program Version,EnergyPlus, Version 8.9.0-eba93e8e1b, YMD=2019.04.04 18:00
1,5,Environment Title[],Latitude[deg],Longitude[deg],Time Zone[],Elevation[m]
2,8,Day of Simulation[],Month[],Day of Month[],DST Indicator[1=yes 0=no],Hour[],StartMinute[],EndMinute[],DayType
3,5,Cumulative Day of Simulation[],Month[],Day of Month[],DST Indicator[1=yes 0=no],DayType  ! When Daily Report Variables Requested
4,2,Cumulative Days of Simulation[],Month[]  ! When Monthly Report Variables Requested
5,1,Cumulative Days of Simulation[] ! When Run Period Report Variables Requested
6,1,Calendar Year of Simulation[] ! When Annual Report Variables Requested
7,9,Environment,Site Outdoor Air Drybulb Temperature [C] !Monthly [Value,Min,Day,Hour,Minute,Max,Day,Hour,Minute]
8,1,Environment,Site Outdoor Air Wetbulb Temperature [C] !TimeStep
357,1,ATRIUM (6 =< HEIGHT <= 12M)-SCH-A-SPACE FUNCTION ZN,Zone Air Temperature [C] !Hourly
358,7,ATRIUM (6 =< HEIGHT <= 12M)-SCH-A-SPACE FUNCTION ZN,Zone Air Relative Humidity [%] !Daily [Value,Min,Hour,Minute,Max,Hour,Minute]
397,1,WHOLEBUILDING-TOWN HALL ZN,Zone Air Temperature [C] !Hourly
398,7,WHOLEBUILDING-TOWN HALL ZN,Zone Air Relative Humidity [%] !Daily [Value,Min,Hour,Minute,Max,Hour,Minute]
437,1,WHOLEBUILDING-TRANSPORTATION FACILITY ZN,Zone Air Temperature [C] !Hourly
438,7,WHOLEBUILDING-TRANSPORTATION FACILITY ZN,Zone Air Relative Humidity [%] !Daily [Value,Min,Hour,Minute,Max,Hour,Minute]
477,1,WHOLEBUILDING-WAREHOUSE ZN,Zone Air Temperature [C] !Hourly
478,7,WHOLEBUILDING-WAREHOUSE ZN,Zone Air Relative Humidity [%] !Daily [Value,Min,Hour,Minute,Max,Hour,Minute]
517,1,WHOLEBUILDING-WORKSHOP ZN,Zone Air Temperature [C] !Hourly
518,7,WHOLEBUILDING-WORKSHOP ZN,Zone Air Relative Humidity [%] !Daily [Value,Min,Hour,Minute,Max,Hour,Minute]
10,1,Electricity:Facility [J] !TimeStep
668,1,DistrictCooling:Facility [J] !TimeStep
631,1,DistrictHeating:Facility [J] !TimeStep
End of Data Dictionary
1,FORT MCMURRAY AP ANN CLG .4% CONDNS DB=>MWB,  56.65,-111.22,  -7.00, 369.10
2,1, 7,21, 0, 1, 0.00,10.00,SummerDesignDay
8,14.218136923962174
10,14110376.152908445
631,0.0
668,7299291.668785277
2,1, 7,21, 0, 1,10.00,20.00,SummerDesignDay
8,14.171982153293495
10,14110376.152908445
631,0.0
668,7106849.431445206
2,1, 7,21, 0, 1,20.00,30.00,SummerDesignDay
8,14.125744780286427
10,14110376.152908445
631,0.0
668,6918070.148237448
2,1, 7,21, 0, 1,30.00,40.00,SummerDesignDay
8,14.079436086331978
10,14110376.152908445
631,0.0
668,6732018.87824494
2,1, 7,21, 0, 1,40.00,50.00,SummerDesignDay
8,14.033050387896898
10,14110376.152908445
631,0.0
668,6548928.9461662
2,1, 7,21, 0, 1,50.00,60.00,SummerDesignDay
8,13.986581233564835
10,14110376.152908445
631,0.0
668,6368825.721035993
2,1, 7,21, 0, 1, 0.00,60.00,SummerDesignDay
357,22.419012004607209
397,22.486655527715457
437,24.000000000000005
477,22.329930516250135
517,21.5712248140062
2,1, 7,21, 0, 2, 0.00,10.00,SummerDesignDay
8,13.95555882260429
10,14110376.152908445
631,0.0
668,6233630.638566167
2,1, 7,21, 0, 2,10.00,20.00,SummerDesignDay
8,13.924507755336454
10,14110376.152908445
631,0.0
668,6101097.426273583
2,1, 7,21, 0, 2,20.00,30.00,SummerDesignDay
8,13.893416042989206
10,14110376.152908445
631,0.0
668,5971876.687530462
2,1, 7,21, 0, 2,30.00,40.00,SummerDesignDay
8,13.862289589689029
10,14110376.152908445
631,0.0
668,5844670.410758636
2,1, 7,21, 0, 2,40.00,50.00,SummerDesignDay
8,13.831134407608739
10,14110376.152908445
631,0.0
668,5719695.562790925
2,1, 7,21, 0, 2,50.00,60.00,SummerDesignDay
8,13.799938415548118
10,14110376.152908445
631,0.0
668,5597009.56713782
2,1, 7,21, 0, 2, 0.00,60.00,SummerDesignDay
357,22.026696199484417
397,21.967904921347999
437,24.00000000000003
477,21.971316010246157
517,21.078222074998896
2,1, 7,21, 0, 3, 0.00,10.00,SummerDesignDay
8,13.776521671948676
10,14110376.152908445
631,0.0
668,5497508.2919135079
2,1, 7,21, 0, 3,10.00,20.00,SummerDesignDay
8,13.753085235778466
10,14110376.152908445
631,0.0
668,5400011.818538471
2,1, 7,21, 0, 3,20.00,30.00,SummerDesignDay
8,13.729636002354969
10,14110376.152908445
631,0.0
668,5305205.846806262
2,1, 7,21, 0, 3,30.00,40.00,SummerDesignDay
8,13.706147375533054
10,14110376.152908445
631,0.0
668,5211721.007796614
2,1, 7,21, 0, 3,40.00,50.00,SummerDesignDay
8,13.682651961920304
10,14110376.152908445
631,0.0
668,5119759.254844107
2,1, 7,21, 0, 3,50.00,60.00,SummerDesignDay
8,13.659136670643687
10,14110376.152908445
631,0.0
668,5029420.359157398
2,1, 7,21, 0, 3, 0.00,60.00,SummerDesignDay
357,21.741588879550524
397,21.622155949045774
437,24.0
477,21.699817815487739
517,20.718801402269084
2,1, 7,21, 0, 4, 0.00,10.00,SummerDesignDay
8,13.63560137410855
10,14110376.152908445
631,0.0
668,4940585.414027775
2,1, 7,21, 0, 4,10.00,20.00,SummerDesignDay
8,13.612040802606578
10,14110376.152908445
631,0.0
668,4853152.949301182
2,1, 7,21, 0, 4,20.00,30.00,SummerDesignDay
8,13.58846620506876
10,14110376.152908445
631,0.0
668,4767023.397072852
2,1, 7,21, 0, 4,30.00,40.00,SummerDesignDay
8,13.56487178447336
10,14110376.152908445
631,0.0
668,4682104.207700456
2,1, 7,21, 0, 4,40.00,50.00,SummerDesignDay
8,13.541257354069103
10,14110376.152908445
631,0.0
668,4598312.2313387379
2,1, 7,21, 0, 4,50.00,60.00,SummerDesignDay
8,13.517617463812285
10,14110376.152908445
631,0.0
668,4515575.472201846
2,1, 7,21, 0, 4, 0.00,60.00,SummerDesignDay
357,21.528654959058938
397,21.374537554274956
437,24.000000000000026
477,21.49261162557123
517,20.442141904467055
2,1, 7,21, 0, 5, 0.00,10.00,SummerDesignDay
8,13.50185415824011
10,14110376.152908445
631,0.0
668,4454885.484659793
2,1, 7,21, 0, 5,10.00,20.00,SummerDesignDay
8,13.486076034032447
10,14110376.152908445
631,0.0
668,4395870.273225432
2,1, 7,21, 0, 5,20.00,30.00,SummerDesignDay
8,13.470289340350983
10,14110376.152908445
631,0.0
668,4337454.279147495
2,1, 7,21, 0, 5,30.00,40.00,SummerDesignDay
8,13.454493322631063
10,14110376.152908445
631,0.0
668,4280103.32974022
2,1, 7,21, 0, 5,40.00,50.00,SummerDesignDay
8,13.438688835118548
10,14110376.152908445
631,0.0
668,4223286.924887017
2,1, 7,21, 0, 5,50.00,60.00,SummerDesignDay
8,13.422888173889437
10,14110376.152908445
631,0.0
668,4166306.7163953299
2,1, 7,21, 0, 5, 0.00,60.00,SummerDesignDay
357,21.361902459027005
397,21.184089149936026
437,24.000000000000005
477,21.328178331819037
517,20.214672170381914
2,1, 7,21, 0, 6, 0.00,10.00,SummerDesignDay
8,13.438688835118548
10,14110376.152908445
631,0.0
668,4193860.559858206
2,1, 7,21, 0, 6,10.00,20.00,SummerDesignDay
8,13.454493322631063
10,14110376.152908445
631,0.0
668,4222697.295329783
2,1, 7,21, 0, 6,20.00,30.00,SummerDesignDay
8,13.470289340350983
10,14110376.152908445
631,0.0
668,4251717.458280275
2,1, 7,21, 0, 6,30.00,40.00,SummerDesignDay
8,13.486076034032447
10,14110376.152908445
631,0.0
668,4282317.435305984
2,1, 7,21, 0, 6,40.00,50.00,SummerDesignDay
8,13.50185415824011
10,14110376.152908445
631,0.0
668,4313321.6160692409
2,1, 7,21, 0, 6,50.00,60.00,SummerDesignDay
8,13.517617463812285
10,14110376.152908445
631,0.0
668,4346266.841702144
2,1, 7,21, 0, 6, 0.00,60.00,SummerDesignDay
357,21.253438506121495
397,21.064242639242847
437,24.0
477,21.22078094437465
517,20.09454429078285
2,1, 7,21, 0, 7, 0.00,10.00,SummerDesignDay
8,13.572736920571789
10,14110376.152908445
631,0.0
668,4484912.850979605
2,1, 7,21, 0, 7,10.00,20.00,SummerDesignDay
8,13.627748229152554
10,14110376.152908445
631,0.0
668,4624093.718258374
2,1, 7,21, 0, 7,20.00,30.00,SummerDesignDay
8,13.682651961920304
10,14110376.152908445
631,0.0
668,4762633.8218587529
2,1, 7,21, 0, 7,30.00,40.00,SummerDesignDay
8,13.737448093244995
10,14110376.152908445
631,0.0
668,4903731.568121212
2,1, 7,21, 0, 7,40.00,50.00,SummerDesignDay
8,13.792137011831216
10,14110376.152908445
631,0.0
668,5046868.653584619
2,1, 7,21, 0, 7,50.00,60.00,SummerDesignDay
8,13.846719282840333
10,14110376.152908445
631,0.0
668,5191954.33693697
2,1, 7,21, 0, 7, 0.00,60.00,SummerDesignDay
357,21.247187433897787
397,21.068413490388477
437,24.00000000000001
477,21.2156925549828
517,20.197415088225545
2,1, 7,21, 0, 8, 0.00,10.00,SummerDesignDay
8,13.978831900527043
10,21526820.469997825
631,48221567.35208678
668,5552523.998689856
2,1, 7,21, 0, 8,10.00,20.00,SummerDesignDay
8,14.110321014287419
10,21526820.469997825
631,0.0
668,5933085.173417072
2,1, 7,21, 0, 8,20.00,30.00,SummerDesignDay
8,14.241191509616986
10,21526820.469997825
631,0.0
668,6339848.202111172
2,1, 7,21, 0, 8,30.00,40.00,SummerDesignDay
8,14.371447531304272
10,21526820.469997825
631,0.0
668,6747264.653540256
2,1, 7,21, 0, 8,40.00,50.00,SummerDesignDay
8,14.501093766564925
10,21526820.469997825
631,0.0
668,7148032.912685558
2,1, 7,21, 0, 8,50.00,60.00,SummerDesignDay
8,14.630134792273804
10,21526820.469997825
631,0.0
668,7441728.641933497
2,1, 7,21, 0, 8, 0.00,60.00,SummerDesignDay
357,22.235635397096528
397,21.2590616967107
437,24.000000000000005
477,22.270387705502363
517,22.353564726716074
2,1, 7,21, 0, 9, 0.00,10.00,SummerDesignDay
8,14.773641492809972
10,47332445.385151
631,9907362.28670614
668,7779566.755026921
2,1, 7,21, 0, 9,10.00,20.00,SummerDesignDay
8,14.91640948124148
10,47332445.385151
631,0.0
668,10116930.161383894
2,1, 7,21, 0, 9,20.00,30.00,SummerDesignDay
8,15.05843890714102
10,47332445.385151
631,0.0
668,17131368.037398153
2,1, 7,21, 0, 9,30.00,40.00,SummerDesignDay
8,15.199735893563798
10,47332445.385151
631,0.0
668,23727378.449392573
2,1, 7,21, 0, 9,40.00,50.00,SummerDesignDay
8,15.340306256439395
10,47332445.385151
631,0.0
668,32158892.97221743
2,1, 7,21, 0, 9,50.00,60.00,SummerDesignDay
8,15.48015101768072
10,47332445.385151
631,0.0
668,34524658.48705578
2,1, 7,21, 0, 9, 0.00,60.00,SummerDesignDay
357,23.429155919544944
397,22.785461202395188
437,24.000000000000005
477,23.20363224907683
517,23.762966271407266
2,1, 7,21, 0,10, 0.00,10.00,SummerDesignDay
8,15.60467292907716
10,66606197.33878874
631,0.0
668,59685808.727647479
2,1, 7,21, 0,10,10.00,20.00,SummerDesignDay
8,15.72862731650033
10,66606197.33878874
631,0.0
668,74858915.6999589
2,1, 7,21, 0,10,20.00,30.00,SummerDesignDay
8,15.852017409284228
10,66606197.33878874
631,0.0
668,69233615.39577565
2,1, 7,21, 0,10,30.00,40.00,SummerDesignDay
8,15.974848118364367
10,66606197.33878874
631,0.0
668,74185114.17985016
2,1, 7,21, 0,10,40.00,50.00,SummerDesignDay
8,16.097123145563505
10,66606197.33878874
631,0.0
668,76490797.94310557
2,1, 7,21, 0,10,50.00,60.00,SummerDesignDay
8,16.218846351168599
10,66606197.33878874
631,0.0
668,78560949.87093681
2,1, 7,21, 0,10, 0.00,60.00,SummerDesignDay
357,23.999999971720869
397,23.99926927093699
437,24.000000000000005
477,23.999959439646774
517,23.99999999646367
2,1, 7,21, 0,11, 0.00,10.00,SummerDesignDay
8,16.325793027093189
10,66606197.33878874
631,0.0
668,80276399.03222573
2,1, 7,21, 0,11,10.00,20.00,SummerDesignDay
8,16.432322158488288
10,66606197.33878874
631,0.0
668,81840188.25771731
2,1, 7,21, 0,11,20.00,30.00,SummerDesignDay
8,16.538424180249178
10,66606197.33878874
631,0.0
668,83313244.8592339
2,1, 7,21, 0,11,30.00,40.00,SummerDesignDay
8,16.644108396469087
10,66606197.33878874
631,0.0
668,84689537.8155379
2,1, 7,21, 0,11,40.00,50.00,SummerDesignDay
8,16.749376736593655
10,66606197.33878874
631,0.0
668,86014651.4296133
2,1, 7,21, 0,11,50.00,60.00,SummerDesignDay
8,16.854232613237156
10,66606197.33878874
631,0.0
668,87281108.89031446
2,1, 7,21, 0,11, 0.00,60.00,SummerDesignDay
357,24.000000000000005
397,23.999999999992697
437,24.000000000000015
477,24.0
517,24.00000000000004
2,1, 7,21, 0,12, 0.00,10.00,SummerDesignDay
8,16.92390823520069
10,66606197.33878874
631,0.0
668,88144350.93020505
2,1, 7,21, 0,12,10.00,20.00,SummerDesignDay
8,16.99340178950456
10,66606197.33878874
631,0.0
668,88969322.80804739
2,1, 7,21, 0,12,20.00,30.00,SummerDesignDay
8,17.06272006743463
10,66606197.33878874
631,0.0
668,89783252.7997722
2,1, 7,21, 0,12,30.00,40.00,SummerDesignDay
8,17.131853229172639
10,66606197.33878874
631,0.0
668,90591012.13933218
2,1, 7,21, 0,12,40.00,50.00,SummerDesignDay
8,17.200807172194087
10,66606197.33878874
631,0.0
668,91389608.23246968
2,1, 7,21, 0,12,50.00,60.00,SummerDesignDay
8,17.269582116758607
10,66606197.33878874
631,0.0
668,92179721.5200544
2,1, 7,21, 0,12, 0.00,60.00,SummerDesignDay
357,24.000000000000005
397,24.0
437,24.00000000000001
477,24.00000000000001
517,24.000000000000026
2,1, 7,21, 0,13, 0.00,10.00,SummerDesignDay
8,17.32447360221357
10,66606197.33878874
631,0.0
668,86916047.59858299
2,1, 7,21, 0,13,10.00,20.00,SummerDesignDay
8,17.379251291230806
10,66606197.33878874
631,0.0
668,87237095.12703705
2,1, 7,21, 0,13,20.00,30.00,SummerDesignDay
8,17.433921312061729
10,66606197.33878874
631,0.0
668,87773440.40837072
2,1, 7,21, 0,13,30.00,40.00,SummerDesignDay
8,17.488473222557489
10,66606197.33878874
631,0.0
668,88287019.58894395
2,1, 7,21, 0,13,40.00,50.00,SummerDesignDay
8,17.542913447755134
10,66606197.33878874
631,0.0
668,88811362.36943592
2,1, 7,21, 0,13,50.00,60.00,SummerDesignDay
8,17.59724609886134
10,66606197.33878874
631,0.0
668,89349505.01749172
2,1, 7,21, 0,13, 0.00,60.00,SummerDesignDay
357,24.00000000000001
397,24.000000000000019
437,24.00000000000003
477,24.000000000000015
517,24.0
2,1, 7,21, 0,14, 0.00,10.00,SummerDesignDay
8,17.6311450462694
10,66606197.33878874
631,0.0
668,89673089.16561973
2,1, 7,21, 0,14,10.00,20.00,SummerDesignDay
8,17.665000449016245
10,66606197.33878874
631,0.0
668,90006386.13644623
2,1, 7,21, 0,14,20.00,30.00,SummerDesignDay
8,17.698812743128934
10,66606197.33878874
631,0.0
668,90347405.8073243
2,1, 7,21, 0,14,30.00,40.00,SummerDesignDay
8,17.732582050940107
10,66606197.33878874
631,0.0
668,90696205.5816639
2,1, 7,21, 0,14,40.00,50.00,SummerDesignDay
8,17.766307345121004
10,66606197.33878874
631,0.0
668,91049473.20446797
2,1, 7,21, 0,14,50.00,60.00,SummerDesignDay
8,17.79999023167558
10,66606197.33878874
631,0.0
668,91406234.54381024
2,1, 7,21, 0,14, 0.00,60.00,SummerDesignDay
357,24.00000000000001
397,24.00000000000003
437,24.000000000000026
477,24.0
517,24.000000000000019
2,1, 7,21, 0,15, 0.00,10.00,SummerDesignDay
8,17.79999023167558
10,66606197.33878874
631,0.0
668,96699846.81332983
2,1, 7,21, 0,15,10.00,20.00,SummerDesignDay
8,17.79999023167558
10,66606197.33878874
631,0.0
668,96999026.68997233
2,1, 7,21, 0,15,20.00,30.00,SummerDesignDay
8,17.79999023167558
10,66606197.33878874
631,0.0
668,97040907.75822282
2,1, 7,21, 0,15,30.00,40.00,SummerDesignDay
8,17.79999023167558
10,66606197.33878874
631,0.0
668,97123403.5169319
2,1, 7,21, 0,15,40.00,50.00,SummerDesignDay
8,17.79999023167558
10,66606197.33878874
631,0.0
668,97198093.29628873
2,1, 7,21, 0,15,50.00,60.00,SummerDesignDay
8,17.79999023167558
10,66606197.33878874
631,0.0
668,97260429.32372236
2,1, 7,21, 0,15, 0.00,60.00,SummerDesignDay
357,24.000000000000005
397,24.00000000000001
437,24.000000000000005
477,24.00000000000001
517,24.000000000000026
2,1, 7,21, 0,16, 0.00,10.00,SummerDesignDay
8,17.759562446305357
10,66606197.33878874
631,0.0
668,96858428.39320302
2,1, 7,21, 0,16,10.00,20.00,SummerDesignDay
8,17.71907809634183
10,66606197.33878874
631,0.0
668,96447516.0755679
2,1, 7,21, 0,16,20.00,30.00,SummerDesignDay
8,17.67853788661001
10,66606197.33878874
631,0.0
668,96029489.58204827
2,1, 7,21, 0,16,30.00,40.00,SummerDesignDay
8,17.63791796367351
10,66606197.33878874
631,0.0
668,95601903.35801493
2,1, 7,21, 0,16,40.00,50.00,SummerDesignDay
8,17.59724609886134
10,66606197.33878874
631,0.0
668,95170328.5978078
2,1, 7,21, 0,16,50.00,60.00,SummerDesignDay
8,17.55650676726033
10,66606197.33878874
631,0.0
668,94736710.88547623
2,1, 7,21, 0,16, 0.00,60.00,SummerDesignDay
357,24.000000000000026
397,24.000000000000019
437,24.00000000000001
477,24.000000000000005
517,24.00000000000004
2,1, 7,21, 0,17, 0.00,10.00,SummerDesignDay
8,17.50209486331892
10,61474332.9858407
631,0.0
668,88790369.98869238
2,1, 7,21, 0,17,10.00,20.00,SummerDesignDay
8,17.447570789624618
10,61474332.9858407
631,0.0
668,87692995.76774238
2,1, 7,21, 0,17,20.00,30.00,SummerDesignDay
8,17.392929544208135
10,61474332.9858407
631,0.0
668,86981027.90833418
2,1, 7,21, 0,17,30.00,40.00,SummerDesignDay
8,17.33818013976614
10,61474332.9858407
631,0.0
668,86253032.53290499
2,1, 7,21, 0,17,40.00,50.00,SummerDesignDay
8,17.283317298559309
10,61474332.9858407
631,0.0
668,85549908.88444402
2,1, 7,21, 0,17,50.00,60.00,SummerDesignDay
8,17.22833552437677
10,61474332.9858407
631,0.0
668,84875160.4863218
2,1, 7,21, 0,17, 0.00,60.00,SummerDesignDay
357,24.000000000000015
397,24.000000000000005
437,24.00000000000003
477,23.999999999999998
517,24.000000000000019
2,1, 7,21, 0,18, 0.00,10.00,SummerDesignDay
8,17.159453019160176
10,53983611.684695508
631,0.0
668,74222774.60316913
2,1, 7,21, 0,18,10.00,20.00,SummerDesignDay
8,17.090391773337136
10,53983611.684695508
631,0.0
668,72583468.78402743
2,1, 7,21, 0,18,20.00,30.00,SummerDesignDay
8,17.021151077964786
10,53983611.684695508
631,0.0
668,71634728.83639151
2,1, 7,21, 0,18,30.00,40.00,SummerDesignDay
8,16.951729380464653
10,53983611.684695508
631,0.0
668,70642214.85036513
2,1, 7,21, 0,18,40.00,50.00,SummerDesignDay
8,16.882126503829249
10,53983611.684695508
631,0.0
668,69699202.36463304
2,1, 7,21, 0,18,50.00,60.00,SummerDesignDay
8,16.812341807494034
10,53983611.684695508
631,0.0
668,68806602.53754783
2,1, 7,21, 0,18, 0.00,60.00,SummerDesignDay
357,24.0
397,24.000000000000005
437,24.000000000000019
477,24.0
517,24.00000000000003
2,1, 7,21, 0,19, 0.00,10.00,SummerDesignDay
8,16.707321072823203
10,40829833.05371816
631,0.0
668,52097882.26065062
2,1, 7,21, 0,19,10.00,20.00,SummerDesignDay
8,16.601881826644556
10,40829833.05371816
631,0.0
668,49960161.065963517
2,1, 7,21, 0,19,20.00,30.00,SummerDesignDay
8,16.496030555252849
10,40829833.05371816
631,0.0
668,48565473.86923341
2,1, 7,21, 0,19,30.00,40.00,SummerDesignDay
8,16.389760181474104
10,40829833.05371816
631,0.0
668,47150978.16414779
2,1, 7,21, 0,19,40.00,50.00,SummerDesignDay
8,16.283067654262039
10,40829833.05371816
631,0.0
668,45799369.8657693
2,1, 7,21, 0,19,50.00,60.00,SummerDesignDay
8,16.17595057957811
10,40829833.05371816
631,0.0
668,44500391.64917213
2,1, 7,21, 0,19, 0.00,60.00,SummerDesignDay
357,24.000000000000005
397,24.00000000000001
437,24.00000000000003
477,24.000000000000005
517,24.000000000000015
2,1, 7,21, 0,20, 0.00,10.00,SummerDesignDay
8,16.097123145563505
10,38205379.617078948
631,0.0
668,38296147.106000188
2,1, 7,21, 0,20,10.00,20.00,SummerDesignDay
8,16.018070242471564
10,38205379.617078948
631,0.0
668,36995058.71701596
2,1, 7,21, 0,20,20.00,30.00,SummerDesignDay
8,15.938779752340516
10,38205379.617078948
631,0.0
668,35756682.49883935
2,1, 7,21, 0,20,30.00,40.00,SummerDesignDay
8,15.85926152575189
10,38205379.617078948
631,0.0
668,34579329.87395706
2,1, 7,21, 0,20,40.00,50.00,SummerDesignDay
8,15.779503718563929
10,38205379.617078948
631,0.0
668,33417245.131606889
2,1, 7,21, 0,20,50.00,60.00,SummerDesignDay
8,15.699515709672767
10,38205379.617078948
631,0.0
668,32282969.26913058
2,1, 7,21, 0,20, 0.00,60.00,SummerDesignDay
357,24.0
397,24.00000000000003
437,24.000000000000015
477,24.0
517,24.000000000000005
2,1, 7,21, 0,21, 0.00,10.00,SummerDesignDay
8,15.63389147320404
10,38205379.617078948
631,0.0
668,31352778.385351976
2,1, 7,21, 0,21,10.00,20.00,SummerDesignDay
8,15.56810827419793
10,38205379.617078948
631,0.0
668,30433061.419352537
2,1, 7,21, 0,21,20.00,30.00,SummerDesignDay
8,15.502170882753524
10,38205379.617078948
631,0.0
668,29532531.13820131
2,1, 7,21, 0,21,30.00,40.00,SummerDesignDay
8,15.436068032613852
10,38205379.617078948
631,0.0
668,28638539.175686946
2,1, 7,21, 0,21,40.00,50.00,SummerDesignDay
8,15.369804371206009
10,38205379.617078948
631,0.0
668,27749441.47798772
2,1, 7,21, 0,21,50.00,60.00,SummerDesignDay
8,15.303384603594449
10,38205379.617078948
631,0.0
668,26976931.50792337
2,1, 7,21, 0,21, 0.00,60.00,SummerDesignDay
357,23.999201204544563
397,24.00000000000001
437,24.00000000000001
477,24.0
517,24.000000000000005
2,1, 7,21, 0,22, 0.00,10.00,SummerDesignDay
8,15.236797685071274
10,31968363.774088149
631,0.0
668,24241873.03783904
2,1, 7,21, 0,22,10.00,20.00,SummerDesignDay
8,15.170047891787942
10,31968363.774088149
631,0.0
668,23934665.3359951
2,1, 7,21, 0,22,20.00,30.00,SummerDesignDay
8,15.103134826860483
10,31968363.774088149
631,0.0
668,23614918.42692385
2,1, 7,21, 0,22,30.00,40.00,SummerDesignDay
8,15.036063385178485
10,31968363.774088149
631,0.0
668,23293587.424240374
2,1, 7,21, 0,22,40.00,50.00,SummerDesignDay
8,14.968821767219835
10,31968363.774088149
631,0.0
668,22971421.17509734
2,1, 7,21, 0,22,50.00,60.00,SummerDesignDay
8,14.90141525878635
10,31968363.774088149
631,0.0
668,22648767.616890849
2,1, 7,21, 0,22, 0.00,60.00,SummerDesignDay
357,23.835868188247685
397,24.00000000000001
437,24.000000000000005
477,23.736241173321575
517,23.608344882518329
2,1, 7,21, 0,23, 0.00,10.00,SummerDesignDay
8,14.848873673278373
10,21704635.068192077
631,0.0
668,13540471.193621725
2,1, 7,21, 0,23,10.00,20.00,SummerDesignDay
8,14.796237168136719
10,21704635.068192077
631,0.0
668,12480525.738475778
2,1, 7,21, 0,23,20.00,30.00,SummerDesignDay
8,14.743494321455645
10,21704635.068192077
631,0.0
668,11985666.190347754
2,1, 7,21, 0,23,30.00,40.00,SummerDesignDay
8,14.690649975253665
10,21704635.068192077
631,0.0
668,11493568.274668942
2,1, 7,21, 0,23,40.00,50.00,SummerDesignDay
8,14.637704281233117
10,21704635.068192077
631,0.0
668,11050987.106478123
2,1, 7,21, 0,23,50.00,60.00,SummerDesignDay
8,14.584656914839757
10,21704635.068192077
631,0.0
668,10639827.768961225
2,1, 7,21, 0,23, 0.00,60.00,SummerDesignDay
357,23.511697253134004
397,24.000000000000005
437,24.000000000000015
477,23.253733929667545
517,22.93880599300965
2,1, 7,21, 0,24, 0.00,10.00,SummerDesignDay
8,14.531507212058875
10,14110376.152908445
631,0.0
668,8494440.668692006
2,1, 7,21, 0,24,10.00,20.00,SummerDesignDay
8,14.47825496413355
10,14110376.152908445
631,0.0
668,8325036.8224438619
2,1, 7,21, 0,24,20.00,30.00,SummerDesignDay
8,14.4249000133173
10,14110376.152908445
631,0.0
668,8147109.581648507
2,1, 7,21, 0,24,30.00,40.00,SummerDesignDay
8,14.371447531304272
10,14110376.152908445
631,0.0
668,7934274.580559403
2,1, 7,21, 0,24,40.00,50.00,SummerDesignDay
8,14.31788619902223
10,14110376.152908445
631,0.0
668,7713105.788636349
2,1, 7,21, 0,24,50.00,60.00,SummerDesignDay
8,14.264220970176066
10,14110376.152908445
631,0.0
668,7494183.715814697
2,1, 7,21, 0,24, 0.00,60.00,SummerDesignDay
357,22.97427012826526
397,23.358552274094106
437,24.000000000000026
477,22.781294215455973
517,22.227012866524345
3,1, 7,21, 0,SummerDesignDay
358,53.201899305522427,48.67407245866381, 9,40,55.144224131996029,17,60
398,46.076249685652729,41.51315423855637,22,40,53.83588171151905, 7,10
438,50.03897046374781,48.815042453079488,17,40,52.48951317585414, 7,30
478,45.309712640079087,40.00085395245673,19,60,53.28676644897449, 7,20
518,47.14778022336022,41.088272696670319,19,60,57.335560833744299, 6,40
4,1, 7
7,22.2505,16.5,21, 5,60,28.9,21,14,60
1,FORT MCMURRAY AP ANN HTG 99.6% CONDNS DB,  56.65,-111.22,  -7.00, 369.10
2,1, 1,21, 0, 1, 0.00,10.00,WinterDesignDay
8,-36.2
10,14110376.152908445
631,175812763.5495956
668,0.0
2,1, 1,21, 0, 1,10.00,20.00,WinterDesignDay
8,-36.2
10,14110376.152908445
631,176236742.52757729
668,0.0
2,1, 1,21, 0, 1,20.00,30.00,WinterDesignDay
8,-36.2
10,14110376.152908445
631,176561300.95430625
668,0.0
2,1, 1,21, 0, 1,30.00,40.00,WinterDesignDay
8,-36.2
10,14110376.152908445
631,176810881.96705813
668,0.0
2,1, 1,21, 0, 1,40.00,50.00,WinterDesignDay
8,-36.2
10,14110376.152908445
631,177015880.91228587
668,0.0
2,1, 1,21, 0, 1,50.00,60.00,WinterDesignDay
8,-36.2
10,14110376.152908445
631,177171129.73454917
668,0.0
2,1, 1,21, 0, 1, 0.00,60.00,WinterDesignDay
357,18.00000000000001
397,18.000000000005838
437,22.000000000000015
477,18.000000000000005
517,18.000000000000005
2,1, 1,21, 0, 2, 0.00,10.00,WinterDesignDay
8,-36.2
10,14110376.152908445
631,144250661.7013715
668,0.0
2,1, 1,21, 0, 2,10.00,20.00,WinterDesignDay
8,-36.2
10,14110376.152908445
631,149312131.65066595
668,0.0
2,1, 1,21, 0, 2,20.00,30.00,WinterDesignDay
8,-36.2
10,14110376.152908445
631,160545152.03518734
668,0.0
2,1, 1,21, 0, 2,30.00,40.00,WinterDesignDay
8,-36.2
10,14110376.152908445
631,167515643.08367587
668,0.0
2,1, 1,21, 0, 2,40.00,50.00,WinterDesignDay
8,-36.2
10,14110376.152908445
631,168328829.1345328
668,0.0
2,1, 1,21, 0, 2,50.00,60.00,WinterDesignDay
8,-36.2
10,14110376.152908445
631,168278276.502166
668,0.0
2,1, 1,21, 0, 2, 0.00,60.00,WinterDesignDay
357,18.000000000000005
397,18.000000000000005
437,18.541391265538385
477,18.000000000000005
517,18.0
2,1, 1,21, 0, 3, 0.00,10.00,WinterDesignDay
8,-36.2
10,14110376.152908445
631,169082737.34815855
668,0.0
2,1, 1,21, 0, 3,10.00,20.00,WinterDesignDay
8,-36.2
10,14110376.152908445
631,169312973.67397619
668,0.0
2,1, 1,21, 0, 3,20.00,30.00,WinterDesignDay
8,-36.2
10,14110376.152908445
631,169496469.81116326
668,0.0
2,1, 1,21, 0, 3,30.00,40.00,WinterDesignDay
8,-36.2
10,14110376.152908445
631,169633596.19951404
668,0.0
2,1, 1,21, 0, 3,40.00,50.00,WinterDesignDay
8,-36.2
10,14110376.152908445
631,169734744.52362997
668,0.0
2,1, 1,21, 0, 3,50.00,60.00,WinterDesignDay
8,-36.2
10,14110376.152908445
631,169821432.59749715
668,0.0
2,1, 1,21, 0, 3, 0.00,60.00,WinterDesignDay
357,18.000000000000005
397,18.000000000000005
437,18.000000000027815
477,18.000000000000005
517,18.00000000000001
2,1, 1,21, 0, 4, 0.00,10.00,WinterDesignDay
8,-36.2
10,14110376.152908445
631,169894409.0370555
668,0.0
2,1, 1,21, 0, 4,10.00,20.00,WinterDesignDay
8,-36.2
10,14110376.152908445
631,169943995.15753497
668,0.0
2,1, 1,21, 0, 4,20.00,30.00,WinterDesignDay
8,-36.2
10,14110376.152908445
631,169986053.76489098
668,0.0
2,1, 1,21, 0, 4,30.00,40.00,WinterDesignDay
8,-36.2
10,14110376.152908445
631,170023629.8340447
668,0.0
2,1, 1,21, 0, 4,40.00,50.00,WinterDesignDay
8,-36.2
10,14110376.152908445
631,170055423.5836175
668,0.0
2,1, 1,21, 0, 4,50.00,60.00,WinterDesignDay
8,-36.2
10,14110376.152908445
631,170081857.7407518
668,0.0
2,1, 1,21, 0, 4, 0.00,60.00,WinterDesignDay
357,18.000000000000005
397,18.000000000000005
437,18.00000000000003
477,18.000000000000005
517,18.00000000000001
2,1, 1,21, 0, 5, 0.00,10.00,WinterDesignDay
8,-36.2
10,14110376.152908445
631,170103745.49480439
668,0.0
2,1, 1,21, 0, 5,10.00,20.00,WinterDesignDay
8,-36.2
10,14110376.152908445
631,170121892.02871544
668,0.0
2,1, 1,21, 0, 5,20.00,30.00,WinterDesignDay
8,-36.2
10,14110376.152908445
631,170136991.24361364
668,0.0
2,1, 1,21, 0, 5,30.00,40.00,WinterDesignDay
8,-36.2
10,14110376.152908445
631,170145948.4462036
668,0.0
2,1, 1,21, 0, 5,40.00,50.00,WinterDesignDay
8,-36.2
10,14110376.152908445
631,170153281.70178957
668,0.0
2,1, 1,21, 0, 5,50.00,60.00,WinterDesignDay
8,-36.2
10,14110376.152908445
631,170160671.36612965
668,0.0
2,1, 1,21, 0, 5, 0.00,60.00,WinterDesignDay
357,18.000000000000005
397,18.000000000000005
437,18.000000000000026
477,18.000000000000005
517,18.000000000000008
2,1, 1,21, 0, 6, 0.00,10.00,WinterDesignDay
8,-36.2
10,14110376.152908445
631,170167638.6324375
668,0.0
2,1, 1,21, 0, 6,10.00,20.00,WinterDesignDay
8,-36.2
10,14110376.152908445
631,170174067.67713649
668,0.0
2,1, 1,21, 0, 6,20.00,30.00,WinterDesignDay
8,-36.2
10,14110376.152908445
631,170179887.79748667
668,0.0
2,1, 1,21, 0, 6,30.00,40.00,WinterDesignDay
8,-36.2
10,14110376.152908445
631,170185131.51980488
668,0.0
2,1, 1,21, 0, 6,40.00,50.00,WinterDesignDay
8,-36.2
10,14110376.152908445
631,170189831.15208308
668,0.0
2,1, 1,21, 0, 6,50.00,60.00,WinterDesignDay
8,-36.2
10,14110376.152908445
631,170194043.87128134
668,0.0
2,1, 1,21, 0, 6, 0.00,60.00,WinterDesignDay
357,18.000000000000008
397,18.000000000000005
437,18.000000000000026
477,18.000000000000005
517,18.000000000000005
2,1, 1,21, 0, 7, 0.00,10.00,WinterDesignDay
8,-36.2
10,14110376.152908445
631,248385964.5663608
668,0.0
2,1, 1,21, 0, 7,10.00,20.00,WinterDesignDay
8,-36.2
10,14110376.152908445
631,116627084.25258327
668,0.0
2,1, 1,21, 0, 7,20.00,30.00,WinterDesignDay
8,-36.2
10,14110376.152908445
631,199752776.9331745
668,0.0
2,1, 1,21, 0, 7,30.00,40.00,WinterDesignDay
8,-36.2
10,14110376.152908445
631,183009226.7717939
668,0.0
2,1, 1,21, 0, 7,40.00,50.00,WinterDesignDay
8,-36.2
10,14110376.152908445
631,180775626.63579465
668,0.0
2,1, 1,21, 0, 7,50.00,60.00,WinterDesignDay
8,-36.2
10,14110376.152908445
631,180996481.227737
668,0.0
2,1, 1,21, 0, 7, 0.00,60.00,WinterDesignDay
357,20.066605094304795
397,18.0
437,18.000000000000019
477,20.06141884661122
517,20.00468385131858
2,1, 1,21, 0, 8, 0.00,10.00,WinterDesignDay
8,-36.2
10,21526820.469997825
631,309432432.06501057
668,0.0
2,1, 1,21, 0, 8,10.00,20.00,WinterDesignDay
8,-36.2
10,21526820.469997825
631,74053439.25831414
668,0.0
2,1, 1,21, 0, 8,20.00,30.00,WinterDesignDay
8,-36.2
10,21526820.469997825
631,237780192.06421948
668,0.0
2,1, 1,21, 0, 8,30.00,40.00,WinterDesignDay
8,-36.2
10,21526820.469997825
631,192561037.4432813
668,0.0
2,1, 1,21, 0, 8,40.00,50.00,WinterDesignDay
8,-36.2
10,21526820.469997825
631,194141214.05924703
668,0.0
2,1, 1,21, 0, 8,50.00,60.00,WinterDesignDay
8,-36.2
10,21526820.469997825
631,193364107.85125996
668,0.0
2,1, 1,21, 0, 8, 0.00,60.00,WinterDesignDay
357,22.042903035451386
397,20.032753650449274
437,20.031114733911989
477,22.042474576393049
517,22.004416857723525
2,1, 1,21, 0, 9, 0.00,10.00,WinterDesignDay
8,-36.2
10,47332445.385151
631,227940416.1860957
668,0.0
2,1, 1,21, 0, 9,10.00,20.00,WinterDesignDay
8,-36.2
10,47332445.385151
631,120777499.36014532
668,0.0
2,1, 1,21, 0, 9,20.00,30.00,WinterDesignDay
8,-36.2
10,47332445.385151
631,193765943.24212943
668,0.0
2,1, 1,21, 0, 9,30.00,40.00,WinterDesignDay
8,-36.2
10,47332445.385151
631,172743898.63646604
668,0.0
2,1, 1,21, 0, 9,40.00,50.00,WinterDesignDay
8,-36.2
10,47332445.385151
631,173081605.03523124
668,0.0
2,1, 1,21, 0, 9,50.00,60.00,WinterDesignDay
8,-36.2
10,47332445.385151
631,172335856.56660853
668,0.0
2,1, 1,21, 0, 9, 0.00,60.00,WinterDesignDay
357,22.00000000000001
397,22.037908520632244
437,22.026407726074468
477,22.000000000000005
517,22.000000000000026
2,1, 1,21, 0,10, 0.00,10.00,WinterDesignDay
8,-36.2