Program Version,EnergyPlus, Version 8.9.0-eba93e8e1b, YMD=2019.04.04 18:00
1,5,Environment Title[],Latitude[deg],Longitude[deg],Time Zone[],Elevation[m]
2,8,Day of Simulation[],Month[],Day of Month[],DST Indicator[1=yes 0=no],Hour[],StartMinute[],EndMinute[],DayType
3,5,Cumulative Day of Simulation[],Month[],Day of Month[],DST Indicator[1=yes 0=no],DayType  ! When Daily Report Variables Requested
4,2,Cumulative Days of Simulation[],Month[]  ! When Monthly Report Variables Requested
5,1,Cumulative Days of Simulation[] ! When Run Period Report Variables Requested
6,1,Calendar Year of Simulation[] ! When Annual Report Variables Requested
7,9,Environment,Site Outdoor Air Drybulb Temperature [C] !Monthly [Value,Min,Day,Hour,Minute,Max,Day,Hour,Minute]
8,1,Environment,Site Outdoor Air Wetbulb Temperature [C] !TimeStep
542,1,SP-CLASSROOM/LECTURE HALL/TRAINING ROOM - PENITENTARY-SPACE FUNCTION SYS-3 FLR-1 SCH-D HPLCMT-CORE ZN,Zone Air Temperature [C] !Hourly
543,7,SP-CLASSROOM/LECTURE HALL/TRAINING ROOM - PENITENTARY-SPACE FUNCTION SYS-3 FLR-1 SCH-D HPLCMT-CORE ZN,Zone Air Relative Humidity [%] !Daily [Value,Min,Hour,Minute,Max,Hour,Minute]
582,1,SP-CLASSROOM/LECTURE HALL/TRAINING ROOM OTHER-SPACE FUNCTION SYS-3 FLR-1 SCH-D HPLCMT-SOUTH ZN,Zone Air Temperature [C] !Hourly
583,7,SP-CLASSROOM/LECTURE HALL/TRAINING ROOM OTHER-SPACE FUNCTION SYS-3 FLR-1 SCH-D HPLCMT-SOUTH ZN,Zone Air Relative Humidity [%] !Daily [Value,Min,Hour,Minute,Max,Hour,Minute]
622,1,SP-CONFERENCE/MEETING/MULTI-PURPOSE ROOM-SPACE FUNCTION SYS-3 FLR-1 SCH-C HPLCMT-EAST ZN,Zone Air Temperature [C] !Hourly
623,7,SP-CONFERENCE/MEETING/MULTI-PURPOSE ROOM-SPACE FUNCTION SYS-3 FLR-1 SCH-C HPLCMT-EAST ZN,Zone Air Relative Humidity [%] !Daily [Value,Min,Hour,Minute,Max,Hour,Minute]
662,1,SP-CONFINEMENT CELL-SPACE FUNCTION SYS-3 FLR-1 SCH-G HPLCMT-NORTH ZN,Zone Air Temperature [C] !Hourly
663,7,SP-CONFINEMENT CELL-SPACE FUNCTION SYS-3 FLR-1 SCH-G HPLCMT-NORTH ZN,Zone Air Relative Humidity [%] !Daily [Value,Min,Hour,Minute,Max,Hour,Minute]
702,1,SP-COPY/PRINT ROOM-SPACE FUNCTION SYS-3 FLR-1 SCH-A HPLCMT-WEST ZN,Zone Air Temperature [C] !Hourly
703,7,SP-COPY/PRINT ROOM-SPACE FUNCTION SYS-3 FLR-1 SCH-A HPLCMT-WEST ZN,Zone Air Relative Humidity [%] !Daily [Value,Min,Hour,Minute,Max,Hour,Minute]
10,1,Electricity:Facility [J] !TimeStep
308,1,Gas:Facility [J] !TimeStep
End of Data Dictionary
1,FORT MCMURRAY AP ANN CLG .4% CONDNS DB=>MWB,  56.65,-111.22,  -7.00, 369.10
2,1, 7,21, 0, 1, 0.00,10.00,SummerDesignDay
8,14.218136923962174
10,54086198.31847516
308,12000.0
2,1, 7,21, 0, 1,10.00,20.00,SummerDesignDay
8,14.171982153293495
10,54086198.31847516
308,393358.9330996623
2,1, 7,21, 0, 1,20.00,30.00,SummerDesignDay
8,14.125744780286427
10,54086198.31847516
308,15133741.270259079
2,1, 7,21, 0, 1,30.00,40.00,SummerDesignDay
8,14.079436086331978
10,54086198.31847516
308,396340.5059452342
2,1, 7,21, 0, 1,40.00,50.00,SummerDesignDay
8,14.033050387896898
10,54086198.31847516
308,12000.0
2,1, 7,21, 0, 1,50.00,60.00,SummerDesignDay
8,13.986581233564835
10,54086198.31847516
308,15476678.880576902
2,1, 7,21, 0, 1, 0.00,60.00,SummerDesignDay
542,22.26339137883103
582,22.181792584241806
622,22.62581521482446
662,23.589223150246999
702,24.450722514786219
2,1, 7,21, 0, 2, 0.00,10.00,SummerDesignDay
8,13.95555882260429
10,51115118.956242088
308,12000.0
2,1, 7,21, 0, 2,10.00,20.00,SummerDesignDay
8,13.924507755336454
10,51115118.956242088
308,12000.0
2,1, 7,21, 0, 2,20.00,30.00,SummerDesignDay
8,13.893416042989206
10,51115118.956242088
308,15020016.045897343
2,1, 7,21, 0, 2,30.00,40.00,SummerDesignDay
8,13.862289589689029
10,51115118.956242088
308,12000.0
2,1, 7,21, 0, 2,40.00,50.00,SummerDesignDay
8,13.831134407608739
10,51115118.956242088
308,12000.0
2,1, 7,21, 0, 2,50.00,60.00,SummerDesignDay
8,13.799938415548118
10,51115118.956242088
308,15047870.691416448
2,1, 7,21, 0, 2, 0.00,60.00,SummerDesignDay
542,21.8707996371801
582,21.788646498341924
622,22.1675145891557
662,22.886052829796328
702,24.388881016375536
2,1, 7,21, 0, 3, 0.00,10.00,SummerDesignDay
8,13.776521671948676
10,51115118.956242088
308,12000.0
2,1, 7,21, 0, 3,10.00,20.00,SummerDesignDay
8,13.753085235778466
10,51115118.956242088
308,12000.0
2,1, 7,21, 0, 3,20.00,30.00,SummerDesignDay
8,13.729636002354969
10,51115118.956242088
308,15070161.010459105
2,1, 7,21, 0, 3,30.00,40.00,SummerDesignDay
8,13.706147375533054
10,51115118.956242088
308,12000.0
2,1, 7,21, 0, 3,40.00,50.00,SummerDesignDay
8,13.682651961920304
10,51115118.956242088
308,12000.0
2,1, 7,21, 0, 3,50.00,60.00,SummerDesignDay
8,13.659136670643687
10,51115118.956242088
308,15089118.319925486
2,1, 7,21, 0, 3, 0.00,60.00,SummerDesignDay
542,21.509389519720157
582,21.44615067762955
622,21.794830188338243
662,22.49880828149752
702,24.341007187398149
2,1, 7,21, 0, 4, 0.00,10.00,SummerDesignDay
8,13.63560137410855
10,51115118.956242088
308,12000.0
2,1, 7,21, 0, 4,10.00,20.00,SummerDesignDay
8,13.612040802606578
10,51115118.956242088
308,12000.0
2,1, 7,21, 0, 4,20.00,30.00,SummerDesignDay
8,13.58846620506876
10,51115118.956242088
308,12000.0
2,1, 7,21, 0, 4,30.00,40.00,SummerDesignDay
8,13.56487178447336
10,51115118.956242088
308,15013578.621437392
2,1, 7,21, 0, 4,40.00,50.00,SummerDesignDay
8,13.541257354069103
10,51115118.956242088
308,12000.0
2,1, 7,21, 0, 4,50.00,60.00,SummerDesignDay
8,13.517617463812285
10,51115118.956242088
308,12000.0
2,1, 7,21, 0, 4, 0.00,60.00,SummerDesignDay
542,21.21521916271062
582,21.165257468093093
622,21.51108181282997
662,22.38351967889402
702,24.307348193496869
2,1, 7,21, 0, 5, 0.00,10.00,SummerDesignDay
8,13.50185415824011
10,51115118.956242088
308,15043378.500162097
2,1, 7,21, 0, 5,10.00,20.00,SummerDesignDay
8,13.486076034032447
10,51115118.956242088
308,12000.0
2,1, 7,21, 0, 5,20.00,30.00,SummerDesignDay
8,13.470289340350983
10,51115118.956242088
308,12000.0
2,1, 7,21, 0, 5,30.00,40.00,SummerDesignDay
8,13.454493322631063
10,51115118.956242088
308,15066203.406848422
2,1, 7,21, 0, 5,40.00,50.00,SummerDesignDay
8,13.438688835118548
10,51115118.956242088
308,12000.0
2,1, 7,21, 0, 5,50.00,60.00,SummerDesignDay
8,13.422888173889437
10,51115118.956242088
308,12000.0
2,1, 7,21, 0, 5, 0.00,60.00,SummerDesignDay
542,20.9700073278937
582,20.92514911872881
622,21.2826381574601
662,22.331084670548909
702,24.283589981704158
2,1, 7,21, 0, 6, 0.00,10.00,SummerDesignDay
8,13.438688835118548
10,51115118.956242088
308,15086986.09211974
2,1, 7,21, 0, 6,10.00,20.00,SummerDesignDay
8,13.454493322631063
10,51115118.956242088
308,12000.0
2,1, 7,21, 0, 6,20.00,30.00,SummerDesignDay
8,13.470289340350983
10,51115118.956242088
308,12000.0
2,1, 7,21, 0, 6,30.00,40.00,SummerDesignDay
8,13.486076034032447
10,51115118.956242088
308,12000.0
2,1, 7,21, 0, 6,40.00,50.00,SummerDesignDay
8,13.50185415824011
10,51115118.956242088
308,15005279.65816191
2,1, 7,21, 0, 6,50.00,60.00,SummerDesignDay
8,13.517617463812285
10,51115118.956242088
308,12000.0
2,1, 7,21, 0, 6, 0.00,60.00,SummerDesignDay
542,20.83052289406097
582,20.786525403686203
622,21.140157083956038
662,22.301391037174839
702,24.266185652216568
2,1, 7,21, 0, 7, 0.00,10.00,SummerDesignDay
8,13.572736920571789
10,53095838.53106414
308,15266994.290495813
2,1, 7,21, 0, 7,10.00,20.00,SummerDesignDay
8,13.627748229152554
10,53095838.53106414
308,12000.0
2,1, 7,21, 0, 7,20.00,30.00,SummerDesignDay
8,13.682651961920304
10,53095838.53106414
308,15278330.79968708
2,1, 7,21, 0, 7,30.00,40.00,SummerDesignDay
8,13.737448093244995
10,53095838.53106414
308,12000.0
2,1, 7,21, 0, 7,40.00,50.00,SummerDesignDay
8,13.792137011831216
10,53095838.53106414
308,15270657.768740176
2,1, 7,21, 0, 7,50.00,60.00,SummerDesignDay
8,13.846719282840333
10,53095838.53106414
308,12000.0
2,1, 7,21, 0, 7, 0.00,60.00,SummerDesignDay
542,20.800020636602175
582,20.754346761491978
622,21.094738980978329
662,22.5701867599038
702,23.673105424773167
2,1, 7,21, 0, 8, 0.00,10.00,SummerDesignDay
8,13.978831900527043
10,65013918.24547636
308,30450146.689781906
2,1, 7,21, 0, 8,10.00,20.00,SummerDesignDay
8,14.110321014287419
10,62933661.99547636
308,16264022.74634685
2,1, 7,21, 0, 8,20.00,30.00,SummerDesignDay
8,14.241191509616986
10,61632503.12047636
308,25564530.01483285
2,1, 7,21, 0, 8,30.00,40.00,SummerDesignDay
8,14.371447531304272
10,62959714.654928337
308,22373734.99043656
2,1, 7,21, 0, 8,40.00,50.00,SummerDesignDay
8,14.501093766564925
10,63313044.37856872
308,16276011.164688563
2,1, 7,21, 0, 8,50.00,60.00,SummerDesignDay
8,14.630134792273804
10,63336267.792994458
308,30635029.157776365
2,1, 7,21, 0, 8, 0.00,60.00,SummerDesignDay
542,20.838591645417183
582,20.784823118383163
622,21.087419315716177
662,23.241193557138144
702,23.89780052548717
2,1, 7,21, 0, 9, 0.00,10.00,SummerDesignDay
8,14.773641492809972
10,126237175.40088918
308,94571531.86053698
2,1, 7,21, 0, 9,10.00,20.00,SummerDesignDay
8,14.91640948124148
10,127967471.07394096
308,31483737.53163478
2,1, 7,21, 0, 9,20.00,30.00,SummerDesignDay
8,15.05843890714102
10,130278336.74511379
308,32937762.27826154
2,1, 7,21, 0, 9,30.00,40.00,SummerDesignDay
8,15.199735893563798
10,131924923.70161613
308,46529692.6288726
2,1, 7,21, 0, 9,40.00,50.00,SummerDesignDay
8,15.340306256439395
10,132736709.0259262
308,33654589.21929311
2,1, 7,21, 0, 9,50.00,60.00,SummerDesignDay
8,15.48015101768072
10,132118869.92963822
308,32923727.22374584
2,1, 7,21, 0, 9, 0.00,60.00,SummerDesignDay
542,22.917790546226354
582,22.8833184476475
622,23.05990425989576
662,23.898190500574147
702,23.998793728891724
2,1, 7,21, 0,10, 0.00,10.00,SummerDesignDay
8,15.60467292907716
10,192912329.47305347
308,32498848.70268149
2,1, 7,21, 0,10,10.00,20.00,SummerDesignDay
8,15.72862731650033
10,204238719.88364468
308,32454128.9403581
2,1, 7,21, 0,10,20.00,30.00,SummerDesignDay
8,15.852017409284228
10,199972676.7358963
308,32457006.200557915
2,1, 7,21, 0,10,30.00,40.00,SummerDesignDay
8,15.974848118364367
10,203252605.62762577
308,32459906.740961974
2,1, 7,21, 0,10,40.00,50.00,SummerDesignDay
8,16.097123145563505
10,205069891.92085848
308,32462791.75515629
2,1, 7,21, 0,10,50.00,60.00,SummerDesignDay
8,16.218846351168599
10,206971858.2614253
308,38798455.4006208
2,1, 7,21, 0,10, 0.00,60.00,SummerDesignDay
542,23.9919939749666
582,23.991570178588476
622,23.99734966947108
662,23.999695215843415
702,23.999480861729699
2,1, 7,21, 0,11, 0.00,10.00,SummerDesignDay
8,16.325793027093189
10,214949214.0923976
308,43053384.61454997
2,1, 7,21, 0,11,10.00,20.00,SummerDesignDay
8,16.432322158488288
10,216852275.97014297
308,49990781.20932356
2,1, 7,21, 0,11,20.00,30.00,SummerDesignDay
8,16.538424180249178
10,218061615.43321786
308,48277155.38455321
2,1, 7,21, 0,11,30.00,40.00,SummerDesignDay
8,16.644108396469087
10,219281919.5823384
308,36651330.07633928
2,1, 7,21, 0,11,40.00,50.00,SummerDesignDay
8,16.749376736593655
10,220451944.11288006
308,49993857.04317079
2,1, 7,21, 0,11,50.00,60.00,SummerDesignDay
8,16.854232613237156
10,221562538.03356589
308,49990381.451439488
2,1, 7,21, 0,11, 0.00,60.00,SummerDesignDay
542,23.99725534944851
582,23.997334508405975
622,23.99826621494032
662,23.999793974602459
702,23.99964573303483
2,1, 7,21, 0,12, 0.00,10.00,SummerDesignDay
8,16.92390823520069
10,222329833.53982327
308,34380503.88107524
2,1, 7,21, 0,12,10.00,20.00,SummerDesignDay
8,16.99340178950456
10,222957737.3055355
308,49218796.47786733
2,1, 7,21, 0,12,20.00,30.00,SummerDesignDay
8,17.06272006743463
10,223660362.3906207
308,44406843.876189749
2,1, 7,21, 0,12,30.00,40.00,SummerDesignDay
8,17.131853229172639
10,224326420.0626695
308,39293948.21704889
2,1, 7,21, 0,12,40.00,50.00,SummerDesignDay
8,17.200807172194087
10,225011593.3855054
308,49217776.592225
2,1, 7,21, 0,12,50.00,60.00,SummerDesignDay
8,17.269582116758607
10,225682994.01313407
308,34325368.58755706
2,1, 7,21, 0,12, 0.00,60.00,SummerDesignDay
542,23.9966638961744
582,23.99675914425187
622,23.99761296914927
662,23.999838802043198
702,23.999943473577458
2,1, 7,21, 0,13, 0.00,10.00,SummerDesignDay
8,17.32447360221357
10,225828964.2315507
308,50723230.23351015
2,1, 7,21, 0,13,10.00,20.00,SummerDesignDay
8,17.379251291230806
10,226315751.73887015
308,50890234.34994485
2,1, 7,21, 0,13,20.00,30.00,SummerDesignDay
8,17.433921312061729
10,226763255.7294057
308,50886401.583528239
2,1, 7,21, 0,13,30.00,40.00,SummerDesignDay
8,17.488473222557489
10,227204426.60604955
308,50882441.06749664
2,1, 7,21, 0,13,40.00,50.00,SummerDesignDay
8,17.542913447755134
10,227673293.38697679
308,45941816.472954418
2,1, 7,21, 0,13,50.00,60.00,SummerDesignDay
8,17.59724609886134
10,228229112.15433894
308,41342596.950361277
2,1, 7,21, 0,13, 0.00,60.00,SummerDesignDay
542,23.996753580752047
582,23.996849736363914
622,23.99615231670899
662,23.999871773029679
702,23.999923859547974
2,1, 7,21, 0,14, 0.00,10.00,SummerDesignDay
8,17.6311450462694
10,228593325.74892432
308,50167294.32966994
2,1, 7,21, 0,14,10.00,20.00,SummerDesignDay
8,17.665000449016245
10,228944338.86096794
308,50893187.23783123
2,1, 7,21, 0,14,20.00,30.00,SummerDesignDay
8,17.698812743128934
10,229240575.88982807
308,50889241.74251971
2,1, 7,21, 0,14,30.00,40.00,SummerDesignDay
8,17.732582050940107
10,229541805.78823395
308,50885315.092678878
2,1, 7,21, 0,14,40.00,50.00,SummerDesignDay
8,17.766307345121004
10,229834631.0356972
308,50881328.35704493
2,1, 7,21, 0,14,50.00,60.00,SummerDesignDay
8,17.79999023167558
10,230125889.91863937
308,43308330.78058601
2,1, 7,21, 0,14, 0.00,60.00,SummerDesignDay
542,23.996811767787773
582,23.996905973936508
622,24.032070039292976
662,23.999883204713855
702,23.99989395283851
2,1, 7,21, 0,15, 0.00,10.00,SummerDesignDay
8,17.79999023167558
10,230184925.42304353
308,47040123.781827408
2,1, 7,21, 0,15,10.00,20.00,SummerDesignDay
8,17.79999023167558
10,230291371.21996106
308,48257410.69483771
2,1, 7,21, 0,15,20.00,30.00,SummerDesignDay
8,17.79999023167558
10,230319287.1152568
308,51535937.30629879
2,1, 7,21, 0,15,30.00,40.00,SummerDesignDay
8,17.79999023167558
10,230342378.5149298
308,51533362.612316589
2,1, 7,21, 0,15,40.00,50.00,SummerDesignDay
8,17.79999023167558
10,230360826.0452391
308,51530922.30419086
2,1, 7,21, 0,15,50.00,60.00,SummerDesignDay
8,17.79999023167558
10,230375598.8854348
308,51528483.82965909
2,1, 7,21, 0,15, 0.00,60.00,SummerDesignDay
542,23.996783211780245
582,23.99687892259789
622,24.15840438658699
662,23.99986570503276
702,23.99977793445191
2,1, 7,21, 0,16, 0.00,10.00,SummerDesignDay
8,17.759562446305357
10,230073126.97818754
308,52716211.555472407
2,1, 7,21, 0,16,10.00,20.00,SummerDesignDay
8,17.71907809634183
10,229911612.26956589
308,52857198.16968171
2,1, 7,21, 0,16,20.00,30.00,SummerDesignDay
8,17.67853788661001
10,229590911.11475847
308,54039102.86799935
2,1, 7,21, 0,16,30.00,40.00,SummerDesignDay
8,17.63791796367351
10,229270550.6703019
308,58546828.33355131
2,1, 7,21, 0,16,40.00,50.00,SummerDesignDay
8,17.59724609886134
10,228943380.88731209
308,58576935.476036798
2,1, 7,21, 0,16,50.00,60.00,SummerDesignDay
8,17.55650676726033
10,228502154.13885094
308,55871122.353580389
2,1, 7,21, 0,16, 0.00,60.00,SummerDesignDay
542,23.99672324238132
582,23.996821757914217
622,24.087158983349757
662,23.999790547307314
702,23.999676221662388
2,1, 7,21, 0,17, 0.00,10.00,SummerDesignDay
8,17.50209486331892
10,213211794.16434468
308,36510362.00178411
2,1, 7,21, 0,17,10.00,20.00,SummerDesignDay
8,17.447570789624618
10,212160399.13959039
308,48440167.905977848
2,1, 7,21, 0,17,20.00,30.00,SummerDesignDay
8,17.392929544208135
10,211504670.70546878
308,49887027.46920929
2,1, 7,21, 0,17,30.00,40.00,SummerDesignDay
8,17.33818013976614
10,210824295.54779504
308,43811623.607876177
2,1, 7,21, 0,17,40.00,50.00,SummerDesignDay
8,17.283317298559309
10,210288616.74232514
308,41044418.746668819
2,1, 7,21, 0,17,50.00,60.00,SummerDesignDay
8,17.22833552437677
10,209779783.33009357
308,49888179.56677566
2,1, 7,21, 0,17, 0.00,60.00,SummerDesignDay
542,23.997837475850504
582,23.99791112761919
622,23.999990627716345
662,23.99973325385071
702,23.999675866681558
2,1, 7,21, 0,18, 0.00,10.00,SummerDesignDay
8,17.159453019160176
10,185836164.9623754
308,32758022.200245684
2,1, 7,21, 0,18,10.00,20.00,SummerDesignDay
8,17.090391773337136
10,184341491.955506
308,32553553.415268184
2,1, 7,21, 0,18,20.00,30.00,SummerDesignDay
8,17.021151077964786
10,183573504.92110864
308,32558297.217468788
2,1, 7,21, 0,18,30.00,40.00,SummerDesignDay
8,16.951729380464653
10,182780963.2475516
308,32562906.69298588
2,1, 7,21, 0,18,40.00,50.00,SummerDesignDay
8,16.882126503829249
10,182032969.79806508
308,41418963.18105955
2,1, 7,21, 0,18,50.00,60.00,SummerDesignDay
8,16.812341807494034
10,181316669.7364938
308,37985080.966988679
2,1, 7,21, 0,18, 0.00,60.00,SummerDesignDay
542,23.99925757801407
582,23.99928765150564
622,23.994792486922959
662,23.999557156182577
702,23.999677715147134
2,1, 7,21, 0,19, 0.00,10.00,SummerDesignDay
8,16.707321072823203
10,141563891.80720509
308,33300126.051035949
2,1, 7,21, 0,19,10.00,20.00,SummerDesignDay
8,16.601881826644556
10,140221383.981924
308,33409416.904432268
2,1, 7,21, 0,19,20.00,30.00,SummerDesignDay
8,16.496030555252849
10,139169785.04137624
308,47904832.59658247
2,1, 7,21, 0,19,30.00,40.00,SummerDesignDay
8,16.389760181474104
10,138092118.9686017
308,33391942.533185178
2,1, 7,21, 0,19,40.00,50.00,SummerDesignDay
8,16.283067654262039
10,137055252.0686253
308,33414672.475420666
2,1, 7,21, 0,19,50.00,60.00,SummerDesignDay
8,16.17595057957811
10,136048542.2641409
308,47901583.06059416
2,1, 7,21, 0,19, 0.00,60.00,SummerDesignDay
542,23.999620202179213
582,23.999635873512117
622,23.99626603973131
662,23.999246243994905
702,23.999876178964699
2,1, 7,21, 0,20, 0.00,10.00,SummerDesignDay
8,16.097123145563505
10,126267453.40923207
308,32142681.795526014
2,1, 7,21, 0,20,10.00,20.00,SummerDesignDay
8,16.018070242471564
10,125393205.53885252
308,32011912.553434574
2,1, 7,21, 0,20,20.00,30.00,SummerDesignDay
8,15.938779752340516
10,124316454.6662726
308,32011254.032783208
2,1, 7,21, 0,20,30.00,40.00,SummerDesignDay
8,15.85926152575189
10,123320440.11246138
308,27885815.56464158
2,1, 7,21, 0,20,40.00,50.00,SummerDesignDay
8,15.779503718563929
10,122281877.20795062
308,25412598.930853007
2,1, 7,21, 0,20,50.00,60.00,SummerDesignDay
8,15.699515709672767
10,118303183.38206023
308,28223522.89367217
2,1, 7,21, 0,20, 0.00,60.00,SummerDesignDay
542,23.999282684706086
582,23.999308856384788
622,23.99866393522218
662,23.99769747333728
702,24.000018815459247
2,1, 7,21, 0,21, 0.00,10.00,SummerDesignDay
8,15.63389147320404
10,115909354.5349579
308,32022796.419974548
2,1, 7,21, 0,21,10.00,20.00,SummerDesignDay
8,15.56810827419793
10,114829117.70046556
308,32021632.532611025
2,1, 7,21, 0,21,20.00,30.00,SummerDesignDay
8,15.502170882753524
10,113764133.22348678
308,32020665.60404276
2,1, 7,21, 0,21,30.00,40.00,SummerDesignDay
8,15.436068032613852
10,112681231.58395283
308,32019697.568710194
2,1, 7,21, 0,21,40.00,50.00,SummerDesignDay
8,15.369804371206009
10,111582613.6488552
308,32018718.349374027
2,1, 7,21, 0,21,50.00,60.00,SummerDesignDay
8,15.303384603594449
10,110468766.50969638
308,32017727.977639
2,1, 7,21, 0,21, 0.00,60.00,SummerDesignDay
542,23.999259635763538
582,23.99929195723522
622,23.999163721122007
662,23.998202161245037
702,24.000063159076317
2,1, 7,21, 0,22, 0.00,10.00,SummerDesignDay
8,15.236797685071274
10,91489654.5647784
308,16027146.717262602
2,1, 7,21, 0,22,10.00,20.00,SummerDesignDay
8,15.170047891787942
10,90281513.54636117
308,15928129.490173402
2,1, 7,21, 0,22,20.00,30.00,SummerDesignDay
8,15.103134826860483
10,89577847.44720486
308,22280483.932292958
2,1, 7,21, 0,22,30.00,40.00,SummerDesignDay
8,15.036063385178485
10,88874348.36939608
308,23970780.092383524
2,1, 7,21, 0,22,40.00,50.00,SummerDesignDay
8,14.968821767219835
10,88172669.30961319
308,15907352.607733747
2,1, 7,21, 0,22,50.00,60.00,SummerDesignDay
8,14.90141525878635
10,87464077.2632231
308,15911604.921195377
2,1, 7,21, 0,22, 0.00,60.00,SummerDesignDay
542,23.999353958666665
582,23.999383233684744
622,23.652483720346607
662,23.998655380567557
702,24.52220789785493
2,1, 7,21, 0,23, 0.00,10.00,SummerDesignDay
8,14.848873673278373
10,68323681.51523647
308,7686258.038843134
2,1, 7,21, 0,23,10.00,20.00,SummerDesignDay
8,14.796237168136719
10,68203774.79687321
308,8178278.174884116
2,1, 7,21, 0,23,20.00,30.00,SummerDesignDay
8,14.743494321455645
10,68110917.1164641
308,15289234.088135418
2,1, 7,21, 0,23,30.00,40.00,SummerDesignDay
8,14.690649975253665
10,68007902.38256134
308,12000.0
2,1, 7,21, 0,23,40.00,50.00,SummerDesignDay
8,14.637704281233117
10,67911834.90821357
308,15282112.110007013
2,1, 7,21, 0,23,50.00,60.00,SummerDesignDay
8,14.584656914839757
10,67812013.323203
308,12000.0
2,1, 7,21, 0,23, 0.00,60.00,SummerDesignDay
542,23.501255151624084
582,23.450165929177968
622,23.357670402703506
662,23.999110362989204
702,24.634660654894174
2,1, 7,21, 0,24, 0.00,10.00,SummerDesignDay
8,14.531507212058875
10,55395364.91078494
308,15153549.937134667
2,1, 7,21, 0,24,10.00,20.00,SummerDesignDay
8,14.47825496413355
10,55151113.356617208
308,12000.0
2,1, 7,21, 0,24,20.00,30.00,SummerDesignDay
8,14.4249000133173
10,57120728.88623707
308,385107.84848320178
2,1, 7,21, 0,24,30.00,40.00,SummerDesignDay
8,14.371447531304272
10,57057277.68070824
308,15110200.192966056
2,1, 7,21, 0,24,40.00,50.00,SummerDesignDay
8,14.31788619902223
10,57057277.68070824
308,406864.98981986255
2,1, 7,21, 0,24,50.00,60.00,SummerDesignDay
8,14.264220970176066
10,57057277.68070824
308,15544588.537831545
2,1, 7,21, 0,24, 0.00,60.00,SummerDesignDay
542,22.668064922993954
582,22.5979693375085
622,23.07387473391437
662,23.997449746466704
702,24.54447967805568
3,1, 7,21, 0,SummerDesignDay
543,51.64892157619318,46.967322399307487,22,50,55.27200963023756, 7,30
583,51.75725972344507,47.03483502355279,22,50,55.42603994840647, 7,40
623,52.68870249994847,46.61749082648792,10,10,58.86553814139839,17,30
663,53.50506241325714,49.13359787827057,23,50,59.6214749741376,19,60
703,43.148967633509787,40.60719022117761,11,20,46.75657184189167, 7,60
4,1, 7
7,22.2505,16.5,21, 5,60,28.9,21,14,60
1,FORT MCMURRAY AP ANN HTG 99.6% CONDNS DB,  56.65,-111.22,  -7.00, 369.10
2,1, 1,21, 0, 1, 0.00,10.00,WinterDesignDay
8,-36.2
10,54086198.31847516
308,997832260.7907376
2,1, 1,21, 0, 1,10.00,20.00,WinterDesignDay
8,-36.2
10,54086198.31847516
308,999324384.84868
2,1, 1,21, 0, 1,20.00,30.00,WinterDesignDay
8,-36.2
10,54086198.31847516
308,1015260251.6713047
2,1, 1,21, 0, 1,30.00,40.00,WinterDesignDay
8,-36.2
10,54086198.31847516
308,1000691245.4607749
2,1, 1,21, 0, 1,40.00,50.00,WinterDesignDay
8,-36.2
10,54086198.31847516
308,1016341003.4636865
2,1, 1,21, 0, 1,50.00,60.00,WinterDesignDay
8,-36.2
10,54086198.31847516
308,1001532319.1404252
2,1, 1,21, 0, 1, 0.00,60.00,WinterDesignDay
542,17.999998262879286
582,17.999996193344946
622,17.999978588619297
662,21.99976771331515
702,17.999996291902016
2,1, 1,21, 0, 2, 0.00,10.00,WinterDesignDay
8,-36.2
10,51115118.956242088
308,1000269745.8915796
2,1, 1,21, 0, 2,10.00,20.00,WinterDesignDay
8,-36.2
10,51115118.956242088
308,986863621.2755913
2,1, 1,21, 0, 2,20.00,30.00,WinterDesignDay
8,-36.2
10,51115118.956242088
308,987123436.4310993
2,1, 1,21, 0, 2,30.00,40.00,WinterDesignDay
8,-36.2
10,51115118.956242088
308,1001031950.2821164
2,1, 1,21, 0, 2,40.00,50.00,WinterDesignDay
8,-36.2
10,51115118.956242088
308,987649107.2842373
2,1, 1,21, 0, 2,50.00,60.00,WinterDesignDay
8,-36.2
10,51115118.956242088
308,987905539.203969
2,1, 1,21, 0, 2, 0.00,60.00,WinterDesignDay
542,17.999996201859508
582,17.99999669162108
622,17.99999402520625
662,19.83417087593865
702,17.99999874424803
2,1, 1,21, 0, 3, 0.00,10.00,WinterDesignDay
8,-36.2
10,51115118.956242088
308,1003245516.587737
2,1, 1,21, 0, 3,10.00,20.00,WinterDesignDay
8,-36.2
10,51115118.956242088
308,988365373.172974
2,1, 1,21, 0, 3,20.00,30.00,WinterDesignDay
8,-36.2
10,51115118.956242088
308,990540832.6395698
2,1, 1,21, 0, 3,30.00,40.00,WinterDesignDay
8,-36.2
10,51115118.956242088
308,1007754047.9461267
2,1, 1,21, 0, 3,40.00,50.00,WinterDesignDay
8,-36.2
10,51115118.956242088
308,991627954.8685184
2,1, 1,21, 0, 3,50.00,60.00,WinterDesignDay
8,-36.2
10,51115118.956242088
308,992268336.3008629
2,1, 1,21, 0, 3, 0.00,60.00,WinterDesignDay
542,17.999991579184106
582,17.999992078255194
622,17.999986948464863
662,18.114097138782474
702,17.999997109631328
2,1, 1,21, 0, 4, 0.00,10.00,WinterDesignDay
8,-36.2
10,51115118.956242088
308,1007550271.8758054
2,1, 1,21, 0, 4,10.00,20.00,WinterDesignDay
8,-36.2
10,51115118.956242088
308,992618549.6377381
2,1, 1,21, 0, 4,20.00,30.00,WinterDesignDay
8,-36.2
10,51115118.956242088
308,995864376.2935126
2,1, 1,21, 0, 4,30.00,40.00,WinterDesignDay
8,-36.2
10,51115118.956242088
308,1005081281.6573829
2,1, 1,21, 0, 4,40.00,50.00,WinterDesignDay
8,-36.2
10,51115118.956242088
308,992877692.3534319
2,1, 1,21, 0, 4,50.00,60.00,WinterDesignDay
8,-36.2
10,51115118.956242088
308,1008048082.4439855
2,1, 1,21, 0, 4, 0.00,60.00,WinterDesignDay
542,17.99999201935783
582,17.999992138376596
622,17.999987953870194
662,17.99973386552699
702,17.999997104830375
2,1, 1,21, 0, 5, 0.00,10.00,WinterDesignDay
8,-36.2
10,51115118.956242088
308,992984119.8892663
2,1, 1,21, 0, 5,10.00,20.00,WinterDesignDay
8,-36.2
10,51115118.956242088
308,993011303.9027342
2,1, 1,21, 0, 5,20.00,30.00,WinterDesignDay
8,-36.2
10,51115118.956242088
308,1008153548.6095474
2,1, 1,21, 0, 5,30.00,40.00,WinterDesignDay
8,-36.2
10,51115118.956242088
308,993083697.7050514
2,1, 1,21, 0, 5,40.00,50.00,WinterDesignDay
8,-36.2
10,51115118.956242088
308,993099112.0695598
2,1, 1,21, 0, 5,50.00,60.00,WinterDesignDay
8,-36.2
10,51115118.956242088
308,1008214053.1647047
2,1, 1,21, 0, 5, 0.00,60.00,WinterDesignDay
542,17.999992183230714
582,17.99999219967651
622,17.999988267939
662,17.9997566276115
702,17.999997117928637
2,1, 1,21, 0, 6, 0.00,10.00,WinterDesignDay
8,-36.2
10,51115118.956242088
308,993142613.163436
2,1, 1,21, 0, 6,10.00,20.00,WinterDesignDay
8,-36.2
10,51115118.956242088
308,993148032.9648845
2,1, 1,21, 0, 6,20.00,30.00,WinterDesignDay
8,-36.2
10,51115118.956242088
308,1008236208.142129
2,1, 1,21, 0, 6,30.00,40.00,WinterDesignDay
8,-36.2
10,51115118.956242088
308,993167506.17311
2,1, 1,21, 0, 6,40.00,50.00,WinterDesignDay
8,-36.2
10,51115118.956242088
308,993174704.9939466
2,1, 1,21, 0, 6,50.00,60.00,WinterDesignDay
8,-36.2
10,51115118.956242088
308,1008243207.9400474
2,1, 1,21, 0, 6, 0.00,60.00,WinterDesignDay
542,17.99999223885139
582,17.999992227451107
622,17.999988364862597
662,17.999763558098395
702,17.99999712131175
2,1, 1,21, 0, 7, 0.00,10.00,WinterDesignDay
8,-36.2
10,53095838.53106414
308,1029035261.325203
2,1, 1,21, 0, 7,10.00,20.00,WinterDesignDay
8,-36.2
10,53095838.53106414
308,997386132.1353941
2,1, 1,21, 0, 7,20.00,30.00,WinterDesignDay
8,-36.2
10,53095838.53106414
308,1023900914.3025926
2,1, 1,21, 0, 7,30.00,40.00,WinterDesignDay
8,-36.2
10,53095838.53106414
308,1002616332.2460233
2,1, 1,21, 0, 7,40.00,50.00,WinterDesignDay
8,-36.2
10,53095838.53106414
308,1017509104.5792629
2,1, 1,21, 0, 7,50.00,60.00,WinterDesignDay
8,-36.2
10,53095838.53106414
308,1017322118.7443276
2,1, 1,21, 0, 7, 0.00,60.00,WinterDesignDay
542,17.99999328606149
582,17.99999331341886
622,17.999990076606875
662,17.99968059925361
702,19.991418621662658
2,1, 1,21, 0, 8, 0.00,10.00,WinterDesignDay
8,-36.2
10,65023719.91479692
308,1179783714.0836616
2,1, 1,21, 0, 8,10.00,20.00,WinterDesignDay
8,-36.2
10,65013919.24197314
308,1108172147.9334088
2,1, 1,21, 0, 8,20.00,30.00,WinterDesignDay
8,-36.2
10,65013918.24547636
308,1076707447.201893
2,1, 1,21, 0, 8,30.00,40.00,WinterDesignDay
8,-36.2
10,65013918.24547636
308,1081082376.0449689
2,1, 1,21, 0, 8,40.00,50.00,WinterDesignDay
8,-36.2
10,65013918.24547636
308,1073576287.9454031
2,1, 1,21, 0, 8,50.00,60.00,WinterDesignDay
8,-36.2
10,65013918.24547636
308,1058375903.1261915
2,1, 1,21, 0, 8, 0.00,60.00,WinterDesignDay
542,19.97682304937979
582,19.97679430381068
622,19.95371268335288
662,19.975983581401768
702,21.981987773662398
2,1, 1,21, 0, 9, 0.00,10.00,WinterDesignDay
8,-36.2
10,117567493.31884192
308,1165004025.9481967
2,1, 1,21, 0, 9,10.00,20.00,WinterDesignDay
8,-36.2
10,117574843.17127714
308,1069117997.4384203
2,1, 1,21, 0, 9,20.00,30.00,WinterDesignDay
8,-36.2
10,117557691.22674525
308,1087249343.4327336
2,1, 1,21, 0, 9,30.00,40.00,WinterDesignDay
8,-36.2
10,117557694.43890241
308,1062019622.9552901
2,1, 1,21, 0, 9,40.00,50.00,WinterDesignDay
8,-36.2
10,117557698.26506901
308,1070994711.8670269
2,1, 1,21, 0, 9,50.00,60.00,WinterDesignDay
8,-36.2
10,117557699.8742033
308,1054929569.4848801
2,1, 1,21, 0, 9, 0.00,60.00,WinterDesignDay
542,21.975129201024463
582,21.975094253906034
622,21.948865914384429
662,21.948222373852248
702,21.999902313092936
2,1, 1,21, 0,10, 0.00,10.00,WinterDesignDay
8,-36.2
10,158350992.56551797
308,1019803704.7912986
2,1, 1,21, 0,10,10.00,20.00,WinterDesignDay
8,-36.2
10,158385252.38192395
308,992279112.3543156
2,1, 1,21, 0,10,20.00,30.00,WinterDesignDay
8,-36.2
10,158385252.38192395
308,989896681.1499304
2,1, 1,21, 0,10,30.00,40.00,WinterDesignDay
8,-36.2
10,158385252.38192395
308,1002000706.301405
2,1, 1,21, 0,10,40.00,50.00,WinterDesignDay
8,-36.2
10,158385252.38192395
308,986113590.5240114
2,1, 1,21, 0,10,50.00,60.00,WinterDesignDay
8,-36.2
10,158385252.38192395
308,984991142.5294603
2,1, 1,21, 0,10, 0.00,60.00,WinterDesignDay
542,21.999999960444418
582,21.999999542571318
622,21.999999659683028
662,21.999763143522775
702,22.47875065112595
2,1, 1,21, 0,11, 0.00,10.00,WinterDesignDay
8,-36.2
10,162898085.5972976
308,992989017.1984211
2,1, 1,21, 0,11,10.00,20.00,WinterDesignDay
8,-36.2
10,162898085.5972976
308,990118016.6098563
2,1, 1,21, 0,11,20.00,30.00,WinterDesignDay
8,-36.2
10,162898085.5972976
308,989554880.6162788
2,1, 1,21, 0,11,30.00,40.00,WinterDesignDay
8,-36.2
10,162898085.5972976
308,989004615.0751948
2,1, 1,21, 0,11,40.00,50.00,WinterDesignDay
8,-36.2
10,162898085.5972976
308,988585385.3838536
2,1, 1,21, 0,11,50.00,60.00,WinterDesignDay
8,-36.2
10,162898085.5972976
308,989513157.9004043