Program Version,EnergyPlus, Version 8.9.0-eba93e8e1b, YMD=2019.04.04 18:00
1,5,Environment Title[],Latitude[deg],Longitude[deg],Time Zone[],Elevation[m]
2,8,Day of Simulation[],Month[],Day of Month[],DST Indicator[1=yes 0=no],Hour[],StartMinute[],EndMinute[],DayType
3,5,Cumulative Day of Simulation[],Month[],Day of Month[],DST Indicator[1=yes 0=no],DayType  ! When Daily Report Variables Requested
4,2,Cumulative Days of Simulation[],Month[]  ! When Monthly Report Variables Requested
5,1,Cumulative Days of Simulation[] ! When Run Period Report Variables Requested
6,1,Calendar Year of Simulation[] ! When Annual Report Variables Requested
7,9,Environment,Site Outdoor Air Drybulb Temperature [C] !Monthly [Value,Min,Day,Hour,Minute,Max,Day,Hour,Minute]
8,1,Environment,Site Outdoor Air Wetbulb Temperature [C] !TimeStep
555,1,SP-DINING AREA - OTHER-SPACE FUNCTION SYS-3 FLR-1 SCH-B HPLCMT-SOUTH ZN,Zone Air Temperature [C] !Hourly
556,7,SP-DINING AREA - OTHER-SPACE FUNCTION SYS-3 FLR-1 SCH-B HPLCMT-SOUTH ZN,Zone Air Relative Humidity [%] !Daily [Value,Min,Hour,Minute,Max,Hour,Minute]
595,1,SP-DINING AREA - SPACE DESIGNED TO ANSI/IES RP-28 (USED PRIMARILY BY RESIDENTS)-SPACE FUNCTION SYS-3 FLR-1 SCH-B HPLCMT-CORE ZN,Zone Air Temperature [C] !Hourly
596,7,SP-DINING AREA - SPACE DESIGNED TO ANSI/IES RP-28 (USED PRIMARILY BY RESIDENTS)-SPACE FUNCTION SYS-3 FLR-1 SCH-B HPLCMT-CORE ZN,Zone Air Relative Humidity [%] !Daily [Value,Min,Hour,Minute,Max,Hour,Minute]
635,1,SP-DRESSING/FITTING ROOM - PERFORMING ARTS THEATRE-SPACE FUNCTION SYS-3 FLR-1 SCH-C HPLCMT-EAST ZN,Zone Air Temperature [C] !Hourly
636,7,SP-DRESSING/FITTING ROOM - PERFORMING ARTS THEATRE-SPACE FUNCTION SYS-3 FLR-1 SCH-C HPLCMT-EAST ZN,Zone Air Relative Humidity [%] !Daily [Value,Min,Hour,Minute,Max,Hour,Minute]
675,1,SP-EMERGENCY VEHICLE GARAGE-SPACE FUNCTION SYS-4 FLR-1 SCH-H HPLCMT-NORTH ZN,Zone Air Temperature [C] !Hourly
676,7,SP-EMERGENCY VEHICLE GARAGE-SPACE FUNCTION SYS-4 FLR-1 SCH-H HPLCMT-NORTH ZN,Zone Air Relative Humidity [%] !Daily [Value,Min,Hour,Minute,Max,Hour,Minute]
715,1,SP-FOOD PREPARATION AREA-SPACE FUNCTION SYS-3 FLR-1 SCH-B HPLCMT-WEST ZN,Zone Air Temperature [C] !Hourly
716,7,SP-FOOD PREPARATION AREA-SPACE FUNCTION SYS-3 FLR-1 SCH-B HPLCMT-WEST ZN,Zone Air Relative Humidity [%] !Daily [Value,Min,Hour,Minute,Max,Hour,Minute]
10,1,Electricity:Facility [J] !TimeStep
321,1,Gas:Facility [J] !TimeStep
End of Data Dictionary
1,FORT MCMURRAY AP ANN CLG .4% CONDNS DB=>MWB,  56.65,-111.22,  -7.00, 369.10
2,1, 7,21, 0, 1, 0.00,10.00,SummerDesignDay
8,14.218136923962174
10,125130110.79479376
321,48516713.366333309
2,1, 7,21, 0, 1,10.00,20.00,SummerDesignDay
8,14.171982153293495
10,124242882.3766375
321,46394954.59450689
2,1, 7,21, 0, 1,20.00,30.00,SummerDesignDay
8,14.125744780286427
10,123843157.22416614
321,46368163.99076699
2,1, 7,21, 0, 1,30.00,40.00,SummerDesignDay
8,14.079436086331978
10,123439356.0035715
321,46339136.61122872
2,1, 7,21, 0, 1,40.00,50.00,SummerDesignDay
8,14.033050387896898
10,123031107.0395611
321,46309621.197168197
2,1, 7,21, 0, 1,50.00,60.00,SummerDesignDay
8,13.986581233564835
10,122618983.62117005
321,46279669.92375438
2,1, 7,21, 0, 1, 0.00,60.00,SummerDesignDay
555,23.58514784364775
595,23.998182823530489
635,22.493424477140537
675,23.9716518387709
715,23.998329830208605
2,1, 7,21, 0, 2, 0.00,10.00,SummerDesignDay
8,13.95555882260429
10,84835057.27331782
321,50404370.802753899
2,1, 7,21, 0, 2,10.00,20.00,SummerDesignDay
8,13.924507755336454
10,84835057.27331782
321,51342890.147033739
2,1, 7,21, 0, 2,20.00,30.00,SummerDesignDay
8,13.893416042989206
10,84835057.27331782
321,51197047.871752899
2,1, 7,21, 0, 2,30.00,40.00,SummerDesignDay
8,13.862289589689029
10,84835057.27331782
321,51221889.61558552
2,1, 7,21, 0, 2,40.00,50.00,SummerDesignDay
8,13.831134407608739
10,84835057.27331782
321,51232660.44680271
2,1, 7,21, 0, 2,50.00,60.00,SummerDesignDay
8,13.799938415548118
10,84835057.27331782
321,51242320.04059781
2,1, 7,21, 0, 2, 0.00,60.00,SummerDesignDay
555,23.027413742840066
595,23.171325182505453
635,22.176474269227925
675,23.94372636576577
715,24.085066882679106
2,1, 7,21, 0, 3, 0.00,10.00,SummerDesignDay
8,13.776521671948676
10,53128538.62484058
321,12000.0
2,1, 7,21, 0, 3,10.00,20.00,SummerDesignDay
8,13.753085235778466
10,53128538.62484058
321,39751406.90985532
2,1, 7,21, 0, 3,20.00,30.00,SummerDesignDay
8,13.729636002354969
10,53128538.62484058
321,12000.0
2,1, 7,21, 0, 3,30.00,40.00,SummerDesignDay
8,13.706147375533054
10,53128538.62484058
321,38372105.858329769
2,1, 7,21, 0, 3,40.00,50.00,SummerDesignDay
8,13.682651961920304
10,53128538.62484058
321,15199724.641897897
2,1, 7,21, 0, 3,50.00,60.00,SummerDesignDay
8,13.659136670643687
10,54265676.99984058
321,27318557.020013326
2,1, 7,21, 0, 3, 0.00,60.00,SummerDesignDay
555,22.01319273709127
595,21.353099006669948
635,21.791073151336687
675,23.859314328598044
715,22.592819502320567
2,1, 7,21, 0, 4, 0.00,10.00,SummerDesignDay
8,13.63560137410855
10,54265676.99984058
321,40594402.27940681
2,1, 7,21, 0, 4,10.00,20.00,SummerDesignDay
8,13.612040802606578
10,54265676.99984058
321,12000.0
2,1, 7,21, 0, 4,20.00,30.00,SummerDesignDay
8,13.58846620506876
10,54265676.99984058
321,39719515.95202843
2,1, 7,21, 0, 4,30.00,40.00,SummerDesignDay
8,13.56487178447336
10,54265676.99984058
321,12000.0
2,1, 7,21, 0, 4,40.00,50.00,SummerDesignDay
8,13.541257354069103
10,54265676.99984058
321,39667837.977376189
2,1, 7,21, 0, 4,50.00,60.00,SummerDesignDay
8,13.517617463812285
10,54265676.99984058
321,12000.0
2,1, 7,21, 0, 4, 0.00,60.00,SummerDesignDay
555,21.176741879730753
595,20.618572035020909
635,21.342207292331609
675,23.66254712220417
715,21.448773014449065
2,1, 7,21, 0, 5, 0.00,10.00,SummerDesignDay
8,13.50185415824011
10,54265676.99984058
321,39613914.21591982
2,1, 7,21, 0, 5,10.00,20.00,SummerDesignDay
8,13.486076034032447
10,54265676.99984058
321,28039603.77780791
2,1, 7,21, 0, 5,20.00,30.00,SummerDesignDay
8,13.470289340350983
10,54265676.99984058
321,14495868.089474913
2,1, 7,21, 0, 5,30.00,40.00,SummerDesignDay
8,13.454493322631063
10,54265676.99984058
321,39747891.94738111
2,1, 7,21, 0, 5,40.00,50.00,SummerDesignDay
8,13.438688835118548
10,54265676.99984058
321,12000.0
2,1, 7,21, 0, 5,50.00,60.00,SummerDesignDay
8,13.422888173889437
10,54265676.99984058
321,39694533.349015537
2,1, 7,21, 0, 5, 0.00,60.00,SummerDesignDay
555,20.72052185389078
595,20.465924403594209
635,20.997758166453019
675,23.39203026273836
715,21.09083098592612
2,1, 7,21, 0, 6, 0.00,10.00,SummerDesignDay
8,13.438688835118548
10,54265676.99984058
321,12000.0
2,1, 7,21, 0, 6,10.00,20.00,SummerDesignDay
8,13.454493322631063
10,54265676.99984058
321,39641786.76022119
2,1, 7,21, 0, 6,20.00,30.00,SummerDesignDay
8,13.470289340350983
10,54265676.99984058
321,14395258.467180388
2,1, 7,21, 0, 6,30.00,40.00,SummerDesignDay
8,13.486076034032447
10,54265676.99984058
321,28051299.648549759
2,1, 7,21, 0, 6,40.00,50.00,SummerDesignDay
8,13.50185415824011
10,54265676.99984058
321,39758928.3368551
2,1, 7,21, 0, 6,50.00,60.00,SummerDesignDay
8,13.517617463812285
10,54265676.99984058
321,44669.72159028516
2,1, 7,21, 0, 6, 0.00,60.00,SummerDesignDay
555,20.513901756727255
595,20.406413651317519
635,20.799946470777209
675,23.244942365028096
715,20.94722476939128
2,1, 7,21, 0, 7, 0.00,10.00,SummerDesignDay
8,13.572736920571789
10,54265676.99984058
321,39720950.98024438
2,1, 7,21, 0, 7,10.00,20.00,SummerDesignDay
8,13.627748229152554
10,54265676.99984058
321,12000.0
2,1, 7,21, 0, 7,20.00,30.00,SummerDesignDay
8,13.682651961920304
10,54265676.99984058
321,39669333.3520892
2,1, 7,21, 0, 7,30.00,40.00,SummerDesignDay
8,13.737448093244995
10,53128538.62484058
321,12000.0
2,1, 7,21, 0, 7,40.00,50.00,SummerDesignDay
8,13.792137011831216
10,53128538.62484058
321,39615476.49990486
2,1, 7,21, 0, 7,50.00,60.00,SummerDesignDay
8,13.846719282840333
10,53128538.62484058
321,27318795.10724005
2,1, 7,21, 0, 7, 0.00,60.00,SummerDesignDay
555,20.476135486345215
595,20.380301199964419
635,20.807430528971627
675,23.221691406979877
715,20.886177070464528
2,1, 7,21, 0, 8, 0.00,10.00,SummerDesignDay
8,13.978831900527043
10,53282503.85689486
321,15285927.889681718
2,1, 7,21, 0, 8,10.00,20.00,SummerDesignDay
8,14.110321014287419
10,54297139.428620997
321,39749656.35589184
2,1, 7,21, 0, 8,20.00,30.00,SummerDesignDay
8,14.241191509616986
10,54541447.06010126
321,12000.0
2,1, 7,21, 0, 8,30.00,40.00,SummerDesignDay
8,14.371447531304272
10,54993667.48373715
321,39696018.27297903
2,1, 7,21, 0, 8,40.00,50.00,SummerDesignDay
8,14.501093766564925
10,54964283.3621187
321,12000.0
2,1, 7,21, 0, 8,50.00,60.00,SummerDesignDay
8,14.630134792273804
10,54935877.053131919
321,39643336.0925413
2,1, 7,21, 0, 8, 0.00,60.00,SummerDesignDay
555,20.53800244369138
595,20.596751390290018
635,21.107537160301008
675,23.216105212209127
715,21.04099382995751
2,1, 7,21, 0, 9, 0.00,10.00,SummerDesignDay
8,14.773641492809972
10,57744563.720998708
321,20425473.158051384
2,1, 7,21, 0, 9,10.00,20.00,SummerDesignDay
8,14.91640948124148
10,57737087.86284984
321,27204006.16565578
2,1, 7,21, 0, 9,20.00,30.00,SummerDesignDay
8,15.05843890714102
10,60414056.803216438
321,39787279.913786757
2,1, 7,21, 0, 9,30.00,40.00,SummerDesignDay
8,15.199735893563798
10,57737087.86284984
321,66343.55151672809
2,1, 7,21, 0, 9,40.00,50.00,SummerDesignDay
8,15.340306256439395
10,58992610.35627952
321,39374658.22655655
2,1, 7,21, 0, 9,50.00,60.00,SummerDesignDay
8,15.48015101768072
10,59831269.399675179
321,12000.0
2,1, 7,21, 0, 9, 0.00,60.00,SummerDesignDay
555,21.748251760056335
595,22.027865223844218
635,22.545995906538484
675,23.641082210128418
715,22.007346099979516
2,1, 7,21, 0,10, 0.00,10.00,SummerDesignDay
8,15.60467292907716
10,96363702.25113938
321,54926701.067715879
2,1, 7,21, 0,10,10.00,20.00,SummerDesignDay
8,15.72862731650033
10,105487645.38039845
321,59264064.84063516
2,1, 7,21, 0,10,20.00,30.00,SummerDesignDay
8,15.852017409284228
10,115418674.12963635
321,59512212.86854538
2,1, 7,21, 0,10,30.00,40.00,SummerDesignDay
8,15.974848118364367
10,112434266.54762484
321,59527676.488929938
2,1, 7,21, 0,10,40.00,50.00,SummerDesignDay
8,16.097123145563505
10,115623826.57127236
321,59528551.854721959
2,1, 7,21, 0,10,50.00,60.00,SummerDesignDay
8,16.218846351168599
10,118235568.59729329
321,59528665.68065036
2,1, 7,21, 0,10, 0.00,60.00,SummerDesignDay
555,23.790092695816825
595,23.91435933902041
635,23.90990903079178
675,23.99928916423598
715,23.84713254555372
2,1, 7,21, 0,11, 0.00,10.00,SummerDesignDay
8,16.325793027093189
10,139851480.7196224
321,59697804.46658207
2,1, 7,21, 0,11,10.00,20.00,SummerDesignDay
8,16.432322158488288
10,142836443.5117746
321,59716683.73233586
2,1, 7,21, 0,11,20.00,30.00,SummerDesignDay
8,16.538424180249178
10,144167684.1720023
321,59660002.51588973
2,1, 7,21, 0,11,30.00,40.00,SummerDesignDay
8,16.644108396469087
10,145502882.93397705
321,53590086.18081937
2,1, 7,21, 0,11,40.00,50.00,SummerDesignDay
8,16.749376736593655
10,146772343.3056672
321,53579368.89565232
2,1, 7,21, 0,11,50.00,60.00,SummerDesignDay
8,16.854232613237156
10,147981318.6448045
321,53567675.56837591
2,1, 7,21, 0,11, 0.00,60.00,SummerDesignDay
555,23.999634726862558
595,23.998977765868728
635,23.999670782320409
675,23.999173482025058
715,23.999153375871136
2,1, 7,21, 0,12, 0.00,10.00,SummerDesignDay
8,16.92390823520069
10,170073228.0380153
321,32770130.122474579
2,1, 7,21, 0,12,10.00,20.00,SummerDesignDay
8,16.99340178950456
10,170811709.33854757
321,34481952.08311138
2,1, 7,21, 0,12,20.00,30.00,SummerDesignDay
8,17.06272006743463
10,171569184.85439993
321,48422919.50359428
2,1, 7,21, 0,12,30.00,40.00,SummerDesignDay
8,17.131853229172639
10,172317433.83833397
321,48440419.38660623
2,1, 7,21, 0,12,40.00,50.00,SummerDesignDay
8,17.200807172194087
10,173015947.5311847
321,48462858.321686308
2,1, 7,21, 0,12,50.00,60.00,SummerDesignDay
8,17.269582116758607
10,173693601.35283453
321,48485522.11375675
2,1, 7,21, 0,12, 0.00,60.00,SummerDesignDay
555,23.99939264430382
595,23.998445616860665
635,23.999713378803148
675,23.99908647903477
715,23.99879863043228
2,1, 7,21, 0,13, 0.00,10.00,SummerDesignDay
8,17.32447360221357
10,176773345.2330866
321,44784057.189803007
2,1, 7,21, 0,13,10.00,20.00,SummerDesignDay
8,17.379251291230806
10,177689815.4233325
321,40896599.617441307
2,1, 7,21, 0,13,20.00,30.00,SummerDesignDay
8,17.433921312061729
10,178351259.30255265
321,40835770.10973237
2,1, 7,21, 0,13,30.00,40.00,SummerDesignDay
8,17.488473222557489
10,179016645.04432044
321,40773208.39662596
2,1, 7,21, 0,13,40.00,50.00,SummerDesignDay
8,17.542913447755134
10,179646759.86734537
321,45037788.03779585
2,1, 7,21, 0,13,50.00,60.00,SummerDesignDay
8,17.59724609886134
10,180247294.6845746
321,52230062.559946548
2,1, 7,21, 0,13, 0.00,60.00,SummerDesignDay
555,23.99907370538872
595,23.998026059691047
635,23.99962637686283
675,23.999061212855748
715,24.086852464708547
2,1, 7,21, 0,14, 0.00,10.00,SummerDesignDay
8,17.6311450462694
10,180085041.51652009
321,55687910.15879587
2,1, 7,21, 0,14,10.00,20.00,SummerDesignDay
8,17.665000449016245
10,180616423.19625045
321,56107090.52700088
2,1, 7,21, 0,14,20.00,30.00,SummerDesignDay
8,17.698812743128934
10,181001251.9872788
321,56109003.484142478
2,1, 7,21, 0,14,30.00,40.00,SummerDesignDay
8,17.732582050940107
10,181380645.78617395
321,56110709.30068197
2,1, 7,21, 0,14,40.00,50.00,SummerDesignDay
8,17.766307345121004
10,181739181.83925206
321,56112395.37847653
2,1, 7,21, 0,14,50.00,60.00,SummerDesignDay
8,17.79999023167558
10,182092645.9944848
321,56114066.101971168
2,1, 7,21, 0,14, 0.00,60.00,SummerDesignDay
555,23.99893557810196
595,23.997685691419318
635,24.003411907693196
675,23.999054295013399
715,24.269315138003365
2,1, 7,21, 0,15, 0.00,10.00,SummerDesignDay
8,17.79999023167558
10,180363197.81394194
321,55916262.780439767
2,1, 7,21, 0,15,10.00,20.00,SummerDesignDay
8,17.79999023167558
10,180260610.44691924
321,48484747.41720973
2,1, 7,21, 0,15,20.00,30.00,SummerDesignDay
8,17.79999023167558
10,180214189.1046236
321,48465311.08160503
2,1, 7,21, 0,15,30.00,40.00,SummerDesignDay
8,17.79999023167558
10,180162340.7232083
321,48443723.67023586
2,1, 7,21, 0,15,40.00,50.00,SummerDesignDay
8,17.79999023167558
10,180124048.66637687
321,48421767.68075277
2,1, 7,21, 0,15,50.00,60.00,SummerDesignDay
8,17.79999023167558
10,180097164.48861296
321,48399536.24056726
2,1, 7,21, 0,15, 0.00,60.00,SummerDesignDay
555,23.999146158550585
595,23.997936253164658
635,24.0404368734316
675,23.999050820219819
715,24.236097976382785
2,1, 7,21, 0,16, 0.00,10.00,SummerDesignDay
8,17.759562446305357
10,177888954.55172477
321,37136155.074214
2,1, 7,21, 0,16,10.00,20.00,SummerDesignDay
8,17.71907809634183
10,177067205.77162437
321,48902793.281839128
2,1, 7,21, 0,16,20.00,30.00,SummerDesignDay
8,17.67853788661001
10,176390306.90855388
321,48917172.05736134
2,1, 7,21, 0,16,30.00,40.00,SummerDesignDay
8,17.63791796367351
10,175898975.164811
321,48936557.04408506
2,1, 7,21, 0,16,40.00,50.00,SummerDesignDay
8,17.59724609886134
10,175345530.70552004
321,48956186.50529249
2,1, 7,21, 0,16,50.00,60.00,SummerDesignDay
8,17.55650676726033
10,174895853.83496658
321,41252690.016822408
2,1, 7,21, 0,16, 0.00,60.00,SummerDesignDay
555,23.999502921344147
595,23.99855424704096
635,24.017161632288688
675,23.999046994126105
715,24.02423214585815
2,1, 7,21, 0,17, 0.00,10.00,SummerDesignDay
8,17.50209486331892
10,174361344.1550001
321,18980403.241668967
2,1, 7,21, 0,17,10.00,20.00,SummerDesignDay
8,17.447570789624618
10,173637900.72140194
321,37429202.14043502
2,1, 7,21, 0,17,20.00,30.00,SummerDesignDay
8,17.392929544208135
10,173095362.1333415
321,45814743.62427208
2,1, 7,21, 0,17,30.00,40.00,SummerDesignDay
8,17.33818013976614
10,172540450.86942328
321,45860861.23449298
2,1, 7,21, 0,17,40.00,50.00,SummerDesignDay
8,17.283317298559309
10,171989574.32918624
321,40103483.475840579
2,1, 7,21, 0,17,50.00,60.00,SummerDesignDay
8,17.22833552437677
10,171446547.78380416
321,17359298.82194371
2,1, 7,21, 0,17, 0.00,60.00,SummerDesignDay
555,23.99967035892243
595,23.998991400308794
635,23.999058604974875
675,23.999045111413897
715,23.99901217946858
2,1, 7,21, 0,18, 0.00,10.00,SummerDesignDay
8,17.159453019160176
10,171358791.72458289
321,37285636.34164515
2,1, 7,21, 0,18,10.00,20.00,SummerDesignDay
8,17.090391773337136
10,170757053.6606945
321,45607364.49623463
2,1, 7,21, 0,18,20.00,30.00,SummerDesignDay
8,17.021151077964786
10,170119246.67232559
321,45656435.60037607
2,1, 7,21, 0,18,30.00,40.00,SummerDesignDay
8,16.951729380464653
10,169478424.1786366
321,37358668.93828911
2,1, 7,21, 0,18,40.00,50.00,SummerDesignDay
8,16.882126503829249
10,168833554.00628758
321,16013407.565798982
2,1, 7,21, 0,18,50.00,60.00,SummerDesignDay
8,16.812341807494034
10,168194444.66477484
321,40968175.500319968
2,1, 7,21, 0,18, 0.00,60.00,SummerDesignDay
555,23.999672211876434
595,23.99904262923663
635,23.998991208323465
675,23.99904533771209
715,23.99905674955671
2,1, 7,21, 0,19, 0.00,10.00,SummerDesignDay
8,16.707321072823203
10,168890438.98519746
321,48027280.60252467
2,1, 7,21, 0,19,10.00,20.00,SummerDesignDay
8,16.601881826644556
10,168203171.11656327
321,48342342.411830659
2,1, 7,21, 0,19,20.00,30.00,SummerDesignDay
8,16.496030555252849
10,167290667.5389659
321,48366348.74362743
2,1, 7,21, 0,19,30.00,40.00,SummerDesignDay
8,16.389760181474104
10,166382395.64866377
321,36385717.77383732
2,1, 7,21, 0,19,40.00,50.00,SummerDesignDay
8,16.283067654262039
10,165452257.13355146
321,29145297.69091707
2,1, 7,21, 0,19,50.00,60.00,SummerDesignDay
8,16.17595057957811
10,163350929.47546355
321,34934966.6306649
2,1, 7,21, 0,19, 0.00,60.00,SummerDesignDay
555,23.999451773276989
595,23.998617389119436
635,23.99902012504468
675,23.999046673059408
715,23.99879005222167
2,1, 7,21, 0,20, 0.00,10.00,SummerDesignDay
8,16.097123145563505
10,159505650.5658248
321,51071606.29759878
2,1, 7,21, 0,20,10.00,20.00,SummerDesignDay
8,16.018070242471564
10,158604273.87799374
321,51410427.332357008
2,1, 7,21, 0,20,20.00,30.00,SummerDesignDay
8,15.938779752340516
10,157482019.19063673
321,51419849.65357558
2,1, 7,21, 0,20,30.00,40.00,SummerDesignDay
8,15.85926152575189
10,156355858.96719606
321,51428946.334324877
2,1, 7,21, 0,20,40.00,50.00,SummerDesignDay
8,15.779503718563929
10,155199205.76402415
321,51438012.438718
2,1, 7,21, 0,20,50.00,60.00,SummerDesignDay
8,15.699515709672767
10,154017881.1617682
321,46972652.77169027
2,1, 7,21, 0,20, 0.00,60.00,SummerDesignDay
555,23.998968661934915
595,23.997755202672836
635,23.999497216591825
675,23.998977425130069
715,23.998179993479658
2,1, 7,21, 0,21, 0.00,10.00,SummerDesignDay
8,15.63389147320404
10,151778771.75353206
321,57279938.112642589
2,1, 7,21, 0,21,10.00,20.00,SummerDesignDay
8,15.56810827419793
10,151327965.14890865
321,58815301.79227092
2,1, 7,21, 0,21,20.00,30.00,SummerDesignDay
8,15.502170882753524
10,150314992.34324537
321,58807004.49569399
2,1, 7,21, 0,21,30.00,40.00,SummerDesignDay
8,15.436068032613852
10,149278980.0860289
321,58798729.649924028
2,1, 7,21, 0,21,40.00,50.00,SummerDesignDay
8,15.369804371206009
10,148224868.82177354
321,58790391.41267228
2,1, 7,21, 0,21,50.00,60.00,SummerDesignDay
8,15.303384603594449
10,147152497.99467606
321,58781989.5208168
2,1, 7,21, 0,21, 0.00,60.00,SummerDesignDay
555,23.998700026468375
595,23.99720340706018
635,23.99970974986006
675,23.999055627245128
715,23.997722482063769
2,1, 7,21, 0,22, 0.00,10.00,SummerDesignDay
8,15.236797685071274
10,140343320.70046789
321,58505094.25145387
2,1, 7,21, 0,22,10.00,20.00,SummerDesignDay
8,15.170047891787942
10,139262475.36452127
321,58466517.79633886
2,1, 7,21, 0,22,20.00,30.00,SummerDesignDay
8,15.103134826860483
10,138158394.60625873
321,58457827.174578119
2,1, 7,21, 0,22,30.00,40.00,SummerDesignDay
8,15.036063385178485
10,137035294.8584274
321,61534216.58384746
2,1, 7,21, 0,22,40.00,50.00,SummerDesignDay
8,14.968821767219835
10,135893523.18950186
321,64441822.7800941
2,1, 7,21, 0,22,50.00,60.00,SummerDesignDay
8,14.90141525878635
10,134760294.59718893
321,64440998.18292322
2,1, 7,21, 0,22, 0.00,60.00,SummerDesignDay
555,23.99852272384013
595,23.99684088158203
635,23.780858448670789
675,23.999095508394935
715,23.997401317799278
2,1, 7,21, 0,23, 0.00,10.00,SummerDesignDay
8,14.848873673278373
10,131862671.78616302
321,70062818.47202769
2,1, 7,21, 0,23,10.00,20.00,SummerDesignDay
8,14.796237168136719
10,131249321.57008307
321,70753195.14969422
2,1, 7,21, 0,23,20.00,30.00,SummerDesignDay
8,14.743494321455645
10,130849912.18414407
321,70751886.81200345
2,1, 7,21, 0,23,30.00,40.00,SummerDesignDay
8,14.690649975253665
10,130436904.81913598
321,70750603.51015818
2,1, 7,21, 0,23,40.00,50.00,SummerDesignDay
8,14.637704281233117
10,130023816.95184593
321,70749302.9178845
2,1, 7,21, 0,23,50.00,60.00,SummerDesignDay
8,14.584656914839757
10,129616147.12367484
321,67136545.73571965
2,1, 7,21, 0,23, 0.00,60.00,SummerDesignDay
555,23.98905813468048
595,23.997250394985909
635,23.288027966826279
675,23.993435490101136
715,23.997632859206335
2,1, 7,21, 0,24, 0.00,10.00,SummerDesignDay
8,14.531507212058875
10,128224366.90718009
321,63238956.126918558
2,1, 7,21, 0,24,10.00,20.00,SummerDesignDay
8,14.47825496413355
10,127764723.00393759
321,63231148.79314256
2,1, 7,21, 0,24,20.00,30.00,SummerDesignDay
8,14.4249000133173
10,127340243.97867956
321,63223125.68007308
2,1, 7,21, 0,24,30.00,40.00,SummerDesignDay
8,14.371447531304272
10,126904467.46927144
321,63215030.36111478
2,1, 7,21, 0,24,40.00,50.00,SummerDesignDay
8,14.31788619902223
10,126466504.79782582
321,63206868.54706469
2,1, 7,21, 0,24,50.00,60.00,SummerDesignDay
8,14.264220970176066
10,126024398.05574452
321,63198639.54157068
2,1, 7,21, 0,24, 0.00,60.00,SummerDesignDay
555,23.793960282671035
595,23.997650031980766
635,22.867770383278907
675,23.98127186343088
715,23.997935588292738
3,1, 7,21, 0,SummerDesignDay
556,51.225232243373067,46.6698614730927,10,19,56.43245168666734, 7,20
596,50.097403978118119,45.70495898500065,10,13,56.64709801119175, 7,30
636,49.79071688570204,45.113929107657117,10,60,55.13353308132831, 7,10
676,51.64651471250567,48.46006798116037,20,50,56.2940441547527, 6,20
716,48.563250266275229,44.39202117459154, 1,60,54.93421741031729, 7,60
4,1, 7
7,22.2505,16.5,21, 5,60,28.9,21,14,60
1,FORT MCMURRAY AP ANN HTG 99.6% CONDNS DB,  56.65,-111.22,  -7.00, 369.10
2,1, 1,21, 0, 1, 0.00,10.00,WinterDesignDay
8,-36.2
10,117678734.12345787
321,1271127347.0136209
2,1, 1,21, 0, 1,10.00,20.00,WinterDesignDay
8,-36.2
10,117678732.22130735
321,1271403718.325035
2,1, 1,21, 0, 1,20.00,30.00,WinterDesignDay
8,-36.2
10,117678730.83774485
321,1271489939.92768
2,1, 1,21, 0, 1,30.00,40.00,WinterDesignDay
8,-36.2
10,117678729.11096215
321,1271569295.3839823
2,1, 1,21, 0, 1,40.00,50.00,WinterDesignDay
8,-36.2
10,117678727.90217607
321,1271634381.2886582
2,1, 1,21, 0, 1,50.00,60.00,WinterDesignDay
8,-36.2
10,117678727.21067077
321,1271686783.2401009
2,1, 1,21, 0, 1, 0.00,60.00,WinterDesignDay
555,22.000000481191994
595,21.998166709517276
635,18.266476644199547
675,21.999109530825878
715,22.210283023539139
2,1, 1,21, 0, 2, 0.00,10.00,WinterDesignDay
8,-36.2
10,85972202.19037719
321,1251999338.9715334
2,1, 1,21, 0, 2,10.00,20.00,WinterDesignDay
8,-36.2
10,85972201.099537
321,1257084537.3956199
2,1, 1,21, 0, 2,20.00,30.00,WinterDesignDay
8,-36.2
10,85972200.68312259
321,1258733188.5959674
2,1, 1,21, 0, 2,30.00,40.00,WinterDesignDay
8,-36.2
10,85972200.41023034
321,1268922866.8822289
2,1, 1,21, 0, 2,40.00,50.00,WinterDesignDay
8,-36.2
10,85972200.12305607
321,1274865706.696551
2,1, 1,21, 0, 2,50.00,60.00,WinterDesignDay
8,-36.2
10,85972199.9506662
321,1279752336.402431
2,1, 1,21, 0, 2, 0.00,60.00,WinterDesignDay
555,22.00000093326059
595,21.999682422591673
635,18.153041742552003
675,18.81906443490397
715,22.00083711313687
2,1, 1,21, 0, 3, 0.00,10.00,WinterDesignDay
8,-36.2
10,54265676.99984058
321,1152861274.8391498
2,1, 1,21, 0, 3,10.00,20.00,WinterDesignDay
8,-36.2
10,54265680.99462055
321,1147743926.2000457
2,1, 1,21, 0, 3,20.00,30.00,WinterDesignDay
8,-36.2
10,54265679.49491135
321,1183945393.2488628
2,1, 1,21, 0, 3,30.00,40.00,WinterDesignDay
8,-36.2
10,54265681.51652472
321,1198372477.9134899
2,1, 1,21, 0, 3,40.00,50.00,WinterDesignDay
8,-36.2
10,54265678.89244902
321,1169019316.022594
2,1, 1,21, 0, 3,50.00,60.00,WinterDesignDay
8,-36.2
10,54265678.11817314
321,1221392261.6642464
2,1, 1,21, 0, 3, 0.00,60.00,WinterDesignDay
555,18.351770309402619
595,18.42037477060856
635,18.008750968407808
675,17.9994669233183
715,19.291106229126745
2,1, 1,21, 0, 4, 0.00,10.00,WinterDesignDay
8,-36.2
10,54265676.99984058
321,1221845667.1403592
2,1, 1,21, 0, 4,10.00,20.00,WinterDesignDay
8,-36.2
10,54265676.99984058
321,1180964239.298204
2,1, 1,21, 0, 4,20.00,30.00,WinterDesignDay
8,-36.2
10,54265676.99984058
321,1223886927.597251
2,1, 1,21, 0, 4,30.00,40.00,WinterDesignDay
8,-36.2
10,54265676.99984058
321,1206571019.3513466
2,1, 1,21, 0, 4,40.00,50.00,WinterDesignDay
8,-36.2
10,54265676.99984058
321,1205962513.789211
2,1, 1,21, 0, 4,50.00,60.00,WinterDesignDay
8,-36.2
10,54265676.99984058
321,1226015997.1361278
2,1, 1,21, 0, 4, 0.00,60.00,WinterDesignDay
555,17.99998470297304
595,17.99997182281704
635,17.999988276020756
675,17.99886372815376
715,18.000177051614317
2,1, 1,21, 0, 5, 0.00,10.00,WinterDesignDay
8,-36.2
10,54265676.99984058
321,1186573181.6117907
2,1, 1,21, 0, 5,10.00,20.00,WinterDesignDay
8,-36.2
10,54265676.99984058
321,1225852263.9279652
2,1, 1,21, 0, 5,20.00,30.00,WinterDesignDay
8,-36.2
10,54265676.99984058
321,1227044478.7509032
2,1, 1,21, 0, 5,30.00,40.00,WinterDesignDay
8,-36.2
10,54265676.99984058
321,1186181481.2273198
2,1, 1,21, 0, 5,40.00,50.00,WinterDesignDay
8,-36.2
10,54265676.99984058
321,1227314924.1482096
2,1, 1,21, 0, 5,50.00,60.00,WinterDesignDay
8,-36.2
10,54265676.99984058
321,1219749619.51784
2,1, 1,21, 0, 5, 0.00,60.00,WinterDesignDay
555,17.999990531508645
595,17.99998337853167
635,17.999991791090907
675,17.998882839490777
715,17.999966649478819
2,1, 1,21, 0, 6, 0.00,10.00,WinterDesignDay
8,-36.2
10,54265676.99984058
321,1196595836.0314127
2,1, 1,21, 0, 6,10.00,20.00,WinterDesignDay
8,-36.2
10,54265676.99984058
321,1227628332.872705
2,1, 1,21, 0, 6,20.00,30.00,WinterDesignDay
8,-36.2
10,54265676.99984058
321,1200789323.637514
2,1, 1,21, 0, 6,30.00,40.00,WinterDesignDay
8,-36.2
10,54265676.99984058
321,1216460192.5998545
2,1, 1,21, 0, 6,40.00,50.00,WinterDesignDay
8,-36.2
10,54265676.99984058
321,1227850546.2579542
2,1, 1,21, 0, 6,50.00,60.00,WinterDesignDay
8,-36.2
10,54265676.99984058
321,1186854438.5486148
2,1, 1,21, 0, 6, 0.00,60.00,WinterDesignDay
555,17.999991179426883
595,17.999984269322736
635,17.999993342952306
675,17.99888857595438
715,17.999979678357115
2,1, 1,21, 0, 7, 0.00,10.00,WinterDesignDay
8,-36.2
10,54265676.99984058
321,1227872766.3684684
2,1, 1,21, 0, 7,10.00,20.00,WinterDesignDay
8,-36.2
10,54265676.99984058
321,1228024992.1840826
2,1, 1,21, 0, 7,20.00,30.00,WinterDesignDay
8,-36.2
10,54265676.99984058
321,1186960575.9390777
2,1, 1,21, 0, 7,30.00,40.00,WinterDesignDay
8,-36.2
10,54265676.99984058
321,1227958425.606761
2,1, 1,21, 0, 7,40.00,50.00,WinterDesignDay
8,-36.2
10,54265676.99984058
321,1212184102.3264187
2,1, 1,21, 0, 7,50.00,60.00,WinterDesignDay
8,-36.2
10,54265676.99984058
321,1206013198.7310308
2,1, 1,21, 0, 7, 0.00,60.00,WinterDesignDay
555,17.99999133050382
595,17.99998445171911
635,17.999994179473558
675,17.998890454940985
715,17.999983323110017
2,1, 1,21, 0, 8, 0.00,10.00,WinterDesignDay
8,-36.2
10,54284366.64521274
321,1290814386.8295422
2,1, 1,21, 0, 8,10.00,20.00,WinterDesignDay
8,-36.2
10,54273152.857989449
321,1224412677.889035
2,1, 1,21, 0, 8,20.00,30.00,WinterDesignDay
8,-36.2
10,54265676.99984058
321,1253345992.408103
2,1, 1,21, 0, 8,30.00,40.00,WinterDesignDay
8,-36.2
10,54265676.99984058
321,1249832875.7800995
2,1, 1,21, 0, 8,40.00,50.00,WinterDesignDay
8,-36.2
10,54265676.99984058
321,1208492611.593632
2,1, 1,21, 0, 8,50.00,60.00,WinterDesignDay
8,-36.2
10,54265676.99984058
321,1248566365.4057933
2,1, 1,21, 0, 8, 0.00,60.00,WinterDesignDay
555,17.999993539364437
595,17.99998827655629
635,19.848211550970978
675,19.980791529562443
715,17.999988058839695
2,1, 1,21, 0, 9, 0.00,10.00,WinterDesignDay
8,-36.2
10,58892915.883222
321,1413100288.1636589
2,1, 1,21, 0, 9,10.00,20.00,WinterDesignDay
8,-36.2
10,58881702.55410419
321,1304839701.354523
2,1, 1,21, 0, 9,20.00,30.00,WinterDesignDay
8,-36.2
10,58874226.23784984
321,1326423760.0056153
2,1, 1,21, 0, 9,30.00,40.00,WinterDesignDay
8,-36.2
10,58874226.23784984
321,1285497583.0268427
2,1, 1,21, 0, 9,40.00,50.00,WinterDesignDay
8,-36.2
10,58874226.23784984
321,1292806298.0656436
2,1, 1,21, 0, 9,50.00,60.00,WinterDesignDay
8,-36.2
10,58874226.23784984
321,1304822350.3021703
2,1, 1,21, 0, 9, 0.00,60.00,WinterDesignDay
555,19.976628250354513
595,19.97656115963402
635,21.846351872696017
675,21.9774175064536
715,19.952785700525923
2,1, 1,21, 0,10, 0.00,10.00,WinterDesignDay
8,-36.2
10,94680971.42783678
321,1404501344.832485
2,1, 1,21, 0,10,10.00,20.00,WinterDesignDay
8,-36.2
10,94677235.9065945
321,1333691433.4895507
2,1, 1,21, 0,10,20.00,30.00,WinterDesignDay
8,-36.2
10,94677233.99460024
321,1338825963.8065394
2,1, 1,21, 0,10,30.00,40.00,WinterDesignDay
8,-36.2
10,94677236.40715909
321,1326993369.9857913
2,1, 1,21, 0,10,40.00,50.00,WinterDesignDay
8,-36.2
10,94677238.05017914
321,1322925993.20774
2,1, 1,21, 0,10,50.00,60.00,WinterDesignDay
8,-36.2
10,94677239.1775818
321,1321381904.1010819
2,1, 1,21, 0,10, 0.00,60.00,WinterDesignDay
555,21.97372862858828
595,21.974941448844509
635,21.999997138353668
675,21.99937813603779
715,21.960463498422269
2,1, 1,21, 0,11, 0.00,10.00,WinterDesignDay
8,-36.2
10,110552919.99657603
321,1304253924.9742449
2,1, 1,21, 0,11,10.00,20.00,WinterDesignDay
8,-36.2
10,110530503.04987777
321,1300587878.0044919
2,1, 1,21, 0,11,20.00,30.00,WinterDesignDay
8,-36.2
10,110530504.10530971
321,1299561516.5350407
2,1, 1,21, 0,11,30.00,40.00,WinterDesignDay
8,-36.2
10,110530505.16769955
321,1300183023.534597