Program Version,EnergyPlus, Version 8.9.0-eba93e8e1b, YMD=2019.04.04 18:00
1,5,Environment Title[],Latitude[deg],Longitude[deg],Time Zone[],Elevation[m]
2,8,Day of Simulation[],Month[],Day of Month[],DST Indicator[1=yes 0=no],Hour[],StartMinute[],EndMinute[],DayType
3,5,Cumulative Day of Simulation[],Month[],Day of Month[],DST Indicator[1=yes 0=no],DayType  ! When Daily Report Variables Requested
4,2,Cumulative Days of Simulation[],Month[]  ! When Monthly Report Variables Requested
5,1,Cumulative Days of Simulation[] ! When Run Period Report Variables Requested
6,1,Calendar Year of Simulation[] ! When Annual Report Variables Requested
7,9,Environment,Site Outdoor Air Drybulb Temperature [C] !Monthly [Value,Min,Day,Hour,Minute,Max,Day,Hour,Minute]
8,1,Environment,Site Outdoor Air Wetbulb Temperature [C] !TimeStep
542,1,SP-HEALTH CARE FACILITY PHYSICAL THERAPY ROOM-SPACE FUNCTION SYS-3 FLR-1 SCH-C HPLCMT-CORE ZN,Zone Air Temperature [C] !Hourly
543,7,SP-HEALTH CARE FACILITY PHYSICAL THERAPY ROOM-SPACE FUNCTION SYS-3 FLR-1 SCH-C HPLCMT-CORE ZN,Zone Air Relative Humidity [%] !Daily [Value,Min,Hour,Minute,Max,Hour,Minute]
582,1,SP-HEALTH CARE FACILITY RECOVERY ROOM-SPACE FUNCTION SYS-3 FLR-1 SCH-H HPLCMT-SOUTH ZN,Zone Air Temperature [C] !Hourly
583,7,SP-HEALTH CARE FACILITY RECOVERY ROOM-SPACE FUNCTION SYS-3 FLR-1 SCH-H HPLCMT-SOUTH ZN,Zone Air Relative Humidity [%] !Daily [Value,Min,Hour,Minute,Max,Hour,Minute]
622,1,SP-LIBRARY READING AREA-SPACE FUNCTION SYS-3 FLR-1 SCH-C HPLCMT-EAST ZN,Zone Air Temperature [C] !Hourly
623,7,SP-LIBRARY READING AREA-SPACE FUNCTION SYS-3 FLR-1 SCH-C HPLCMT-EAST ZN,Zone Air Relative Humidity [%] !Daily [Value,Min,Hour,Minute,Max,Hour,Minute]
662,1,SP-LIBRARY STACKS-SPACE FUNCTION SYS-3 FLR-1 SCH-C HPLCMT-NORTH ZN,Zone Air Temperature [C] !Hourly
663,7,SP-LIBRARY STACKS-SPACE FUNCTION SYS-3 FLR-1 SCH-C HPLCMT-NORTH ZN,Zone Air Relative Humidity [%] !Daily [Value,Min,Hour,Minute,Max,Hour,Minute]
702,1,SP-MANUFACTURING FACILITY DETAILED MANUFACTURING AREA-SPACE FUNCTION SYS-3 FLR-1 SCH-A HPLCMT-WEST ZN,Zone Air Temperature [C] !Hourly
703,7,SP-MANUFACTURING FACILITY DETAILED MANUFACTURING AREA-SPACE FUNCTION SYS-3 FLR-1 SCH-A HPLCMT-WEST ZN,Zone Air Relative Humidity [%] !Daily [Value,Min,Hour,Minute,Max,Hour,Minute]
10,1,Electricity:Facility [J] !TimeStep
308,1,Gas:Facility [J] !TimeStep
End of Data Dictionary
1,FORT MCMURRAY AP ANN CLG .4% CONDNS DB=>MWB,  56.65,-111.22,  -7.00, 369.10
2,1, 7,21, 0, 1, 0.00,10.00,SummerDesignDay
8,14.218136923962174
10,56709360.22263936
308,9999090.790223116
2,1, 7,21, 0, 1,10.00,20.00,SummerDesignDay
8,14.171982153293495
10,56709360.22263936
308,10594955.885050519
2,1, 7,21, 0, 1,20.00,30.00,SummerDesignDay
8,14.125744780286427
10,56709360.22263936
308,15740680.362615295
2,1, 7,21, 0, 1,30.00,40.00,SummerDesignDay
8,14.079436086331978
10,56709360.22263936
308,16804534.44430962
2,1, 7,21, 0, 1,40.00,50.00,SummerDesignDay
8,14.033050387896898
10,56709360.22263936
308,17537957.957916328
2,1, 7,21, 0, 1,50.00,60.00,SummerDesignDay
8,13.986581233564835
10,56709360.22263936
308,16841272.594911439
2,1, 7,21, 0, 1, 0.00,60.00,SummerDesignDay
542,22.549434438406086
582,23.974924623996448
622,21.805490608985129
662,21.476571033649589
702,23.461474287999854
2,1, 7,21, 0, 2, 0.00,10.00,SummerDesignDay
8,13.95555882260429
10,56709360.22263936
308,14548695.770274878
2,1, 7,21, 0, 2,10.00,20.00,SummerDesignDay
8,13.924507755336454
10,56709360.22263936
308,9981487.47403805
2,1, 7,21, 0, 2,20.00,30.00,SummerDesignDay
8,13.893416042989206
10,56709360.22263936
308,10451973.404500297
2,1, 7,21, 0, 2,30.00,40.00,SummerDesignDay
8,13.862289589689029
10,56709360.22263936
308,16797072.287003917
2,1, 7,21, 0, 2,40.00,50.00,SummerDesignDay
8,13.831134407608739
10,56709360.22263936
308,16810292.797985417
2,1, 7,21, 0, 2,50.00,60.00,SummerDesignDay
8,13.799938415548118
10,56709360.22263936
308,16828832.705817235
2,1, 7,21, 0, 2, 0.00,60.00,SummerDesignDay
542,22.082262158713509
582,23.953870665008308
622,21.392988648160569
662,21.01839738951374
702,23.36524204010874
2,1, 7,21, 0, 3, 0.00,10.00,SummerDesignDay
8,13.776521671948676
10,56709360.22263936
308,16847607.08718249
2,1, 7,21, 0, 3,10.00,20.00,SummerDesignDay
8,13.753085235778466
10,56709360.22263936
308,12253348.571043924
2,1, 7,21, 0, 3,20.00,30.00,SummerDesignDay
8,13.729636002354969
10,56709360.22263936
308,9930679.059755838
2,1, 7,21, 0, 3,30.00,40.00,SummerDesignDay
8,13.706147375533054
10,56709360.22263936
308,12793510.465117708
2,1, 7,21, 0, 3,40.00,50.00,SummerDesignDay
8,13.682651961920304
10,56709360.22263936
308,16800233.47133569
2,1, 7,21, 0, 3,50.00,60.00,SummerDesignDay
8,13.659136670643687
10,56709360.22263936
308,16816475.792147917
2,1, 7,21, 0, 3, 0.00,60.00,SummerDesignDay
542,21.729091507391176
582,23.935276579731306
622,21.07808196317788
662,20.675569105172405
702,23.19173603947659
2,1, 7,21, 0, 4, 0.00,10.00,SummerDesignDay
8,13.63560137410855
10,56709360.22263936
308,16835172.721119178
2,1, 7,21, 0, 4,10.00,20.00,SummerDesignDay
8,13.612040802606578
10,56709360.22263936
308,16748582.426199804
2,1, 7,21, 0, 4,20.00,30.00,SummerDesignDay
8,13.58846620506876
10,56709360.22263936
308,10024621.781969319
2,1, 7,21, 0, 4,30.00,40.00,SummerDesignDay
8,13.56487178447336
10,56709360.22263936
308,9873454.28025885
2,1, 7,21, 0, 4,40.00,50.00,SummerDesignDay
8,13.541257354069103
10,56709360.22263936
308,15135501.340626706
2,1, 7,21, 0, 4,50.00,60.00,SummerDesignDay
8,13.517617463812285
10,56709360.22263936
308,16804717.390047477
2,1, 7,21, 0, 4, 0.00,60.00,SummerDesignDay
542,21.456348155671873
582,23.919299156710509
622,20.827488792510267
662,20.402053965938778
702,22.997891971665628
2,1, 7,21, 0, 5, 0.00,10.00,SummerDesignDay
8,13.50185415824011
10,56709360.22263936
308,16822724.517632493
2,1, 7,21, 0, 5,10.00,20.00,SummerDesignDay
8,13.486076034032447
10,56709360.22263936
308,16841498.026328278
2,1, 7,21, 0, 5,20.00,30.00,SummerDesignDay
8,13.470289340350983
10,56709360.22263936
308,14467367.034586637
2,1, 7,21, 0, 5,30.00,40.00,SummerDesignDay
8,13.454493322631063
10,56709360.22263936
308,9979786.751211314
2,1, 7,21, 0, 5,40.00,50.00,SummerDesignDay
8,13.438688835118548
10,56709360.22263936
308,10535732.435389782
2,1, 7,21, 0, 5,50.00,60.00,SummerDesignDay
8,13.422888173889437
10,56709360.22263936
308,16797162.456786515
2,1, 7,21, 0, 5, 0.00,60.00,SummerDesignDay
542,21.22730920369995
582,23.90566572225958
622,20.616577437767615
662,20.16944551076844
702,22.815282093284997
2,1, 7,21, 0, 6, 0.00,10.00,SummerDesignDay
8,13.438688835118548
10,56709360.22263936
308,16810511.91520897
2,1, 7,21, 0, 6,10.00,20.00,SummerDesignDay
8,13.454493322631063
10,56709360.22263936
308,16829058.802955014
2,1, 7,21, 0, 6,20.00,30.00,SummerDesignDay
8,13.470289340350983
10,56709360.22263936
308,16847832.464168397
2,1, 7,21, 0, 6,30.00,40.00,SummerDesignDay
8,13.486076034032447
10,56709360.22263936
308,12171081.805405608
2,1, 7,21, 0, 6,40.00,50.00,SummerDesignDay
8,13.50185415824011
10,56709360.22263936
308,9928753.282775496
2,1, 7,21, 0, 6,50.00,60.00,SummerDesignDay
8,13.517617463812285
10,56709360.22263936
308,12876666.489147859
2,1, 7,21, 0, 6, 0.00,60.00,SummerDesignDay
542,21.090409078392299
582,23.894416207994607
622,20.500651731973848
662,20.05113487916896
702,22.691022652192144
2,1, 7,21, 0, 7, 0.00,10.00,SummerDesignDay
8,13.572736920571789
10,56709360.22263936
308,16800370.192316507
2,1, 7,21, 0, 7,10.00,20.00,SummerDesignDay
8,13.627748229152554
10,56709360.22263936
308,16816697.015488727
2,1, 7,21, 0, 7,20.00,30.00,SummerDesignDay
8,13.682651961920304
10,56709360.22263936
308,16835398.04614733
2,1, 7,21, 0, 7,30.00,40.00,SummerDesignDay
8,13.737448093244995
10,56709360.22263936
308,16667215.68787636
2,1, 7,21, 0, 7,40.00,50.00,SummerDesignDay
8,13.792137011831216
10,56709360.22263936
308,10023125.498540316
2,1, 7,21, 0, 7,50.00,60.00,SummerDesignDay
8,13.846719282840333
10,56709360.22263936
308,9871300.913801026
2,1, 7,21, 0, 7, 0.00,60.00,SummerDesignDay
542,21.05508770135251
582,23.88750517205044
622,20.589032841464957
662,20.180913634118928
702,22.646212170455045
2,1, 7,21, 0, 8, 0.00,10.00,SummerDesignDay
8,13.978831900527043
10,61745564.823394279
308,15326654.605074298
2,1, 7,21, 0, 8,10.00,20.00,SummerDesignDay
8,14.110321014287419
10,60690436.698394279
308,20667895.80176013
2,1, 7,21, 0, 8,20.00,30.00,SummerDesignDay
8,14.241191509616986
10,60690436.698394279
308,16953237.288629299
2,1, 7,21, 0, 8,30.00,40.00,SummerDesignDay
8,14.371447531304272
10,60994842.90295281
308,16970362.410559626
2,1, 7,21, 0, 8,40.00,50.00,SummerDesignDay
8,14.501093766564925
10,61936016.93915774
308,15806713.970289493
2,1, 7,21, 0, 8,50.00,60.00,SummerDesignDay
8,14.630134792273804
10,62361958.6074774
308,10505122.500291843
2,1, 7,21, 0, 8, 0.00,60.00,SummerDesignDay
542,21.075759733458573
582,23.900261450377355
622,21.02608921831313
662,20.739345891126054
702,23.07360948320466
2,1, 7,21, 0, 9, 0.00,10.00,SummerDesignDay
8,14.773641492809972
10,104971771.7507287
308,59928785.8221856
2,1, 7,21, 0, 9,10.00,20.00,SummerDesignDay
8,14.91640948124148
10,108374051.16797793
308,15051083.111797367
2,1, 7,21, 0, 9,20.00,30.00,SummerDesignDay
8,15.05843890714102
10,111103253.92987405
308,16810026.5524954
2,1, 7,21, 0, 9,30.00,40.00,SummerDesignDay
8,15.199735893563798
10,111792846.02995366
308,18514127.164461014
2,1, 7,21, 0, 9,40.00,50.00,SummerDesignDay
8,15.340306256439395
10,113030718.40269502
308,18992688.92759045
2,1, 7,21, 0, 9,50.00,60.00,SummerDesignDay
8,15.48015101768072
10,118028468.47203939
308,18830077.374292256
2,1, 7,21, 0, 9, 0.00,60.00,SummerDesignDay
542,23.12107444251338
582,23.998962557717858
622,22.934880276571496
662,23.176708466567818
702,23.945878952048884
2,1, 7,21, 0,10, 0.00,10.00,SummerDesignDay
8,15.60467292907716
10,158143459.02323065
308,20006825.025130035
2,1, 7,21, 0,10,10.00,20.00,SummerDesignDay
8,15.72862731650033
10,160877474.24538646
308,20188325.65919183
2,1, 7,21, 0,10,20.00,30.00,SummerDesignDay
8,15.852017409284228
10,162725762.64707075
308,20192562.02199003
2,1, 7,21, 0,10,30.00,40.00,SummerDesignDay
8,15.974848118364367
10,164724091.69154243
308,20195204.979529624
2,1, 7,21, 0,10,40.00,50.00,SummerDesignDay
8,16.097123145563505
10,167439277.84656827
308,20197847.7327301
2,1, 7,21, 0,10,50.00,60.00,SummerDesignDay
8,16.218846351168599
10,168754502.49347306
308,18021294.03659395
2,1, 7,21, 0,10, 0.00,60.00,SummerDesignDay
542,23.999618383967304
582,23.998753523348758
622,23.998197551527768
662,23.99938441075287
702,23.998792861067668
2,1, 7,21, 0,11, 0.00,10.00,SummerDesignDay
8,16.325793027093189
10,170932282.7859622
308,21282737.746600707
2,1, 7,21, 0,11,10.00,20.00,SummerDesignDay
8,16.432322158488288
10,172029039.5010631
308,21603490.261461244
2,1, 7,21, 0,11,20.00,30.00,SummerDesignDay
8,16.538424180249178
10,172942664.53285558
308,21598506.85504326
2,1, 7,21, 0,11,30.00,40.00,SummerDesignDay
8,16.644108396469087
10,173821896.81817694
308,21593399.774139476
2,1, 7,21, 0,11,40.00,50.00,SummerDesignDay
8,16.749376736593655
10,174664673.0394519
308,21588233.824980733
2,1, 7,21, 0,11,50.00,60.00,SummerDesignDay
8,16.854232613237156
10,175472985.58906687
308,21583012.77536677
2,1, 7,21, 0,11, 0.00,60.00,SummerDesignDay
542,23.99961635639571
582,23.998828825137605
622,23.99942456925896
662,23.9993661591854
702,23.9988398727595
2,1, 7,21, 0,12, 0.00,10.00,SummerDesignDay
8,16.92390823520069
10,176021269.75805808
308,22930876.35308543
2,1, 7,21, 0,12,10.00,20.00,SummerDesignDay
8,16.99340178950456
10,176596743.54823513
308,23063335.581804478
2,1, 7,21, 0,12,20.00,30.00,SummerDesignDay
8,17.06272006743463
10,177114680.1138831
308,26243733.046469235
2,1, 7,21, 0,12,30.00,40.00,SummerDesignDay
8,17.131853229172639
10,177622624.85840283
308,26558590.18797232
2,1, 7,21, 0,12,40.00,50.00,SummerDesignDay
8,17.200807172194087
10,178119827.52014167
308,26568496.582527836
2,1, 7,21, 0,12,50.00,60.00,SummerDesignDay
8,17.269582116758607
10,178607487.92625989
308,26578682.14863633
2,1, 7,21, 0,12, 0.00,60.00,SummerDesignDay
542,23.999594812278976
582,23.998781970271648
622,23.999385479802219
662,23.999358366007745
702,23.99881608236208
2,1, 7,21, 0,13, 0.00,10.00,SummerDesignDay
8,17.32447360221357
10,179327950.155643
308,30919305.453917624
2,1, 7,21, 0,13,10.00,20.00,SummerDesignDay
8,17.379251291230806
10,179789331.6527334
308,27399120.532696807
2,1, 7,21, 0,13,20.00,30.00,SummerDesignDay
8,17.433921312061729
10,180171693.65411947
308,33144491.745952619
2,1, 7,21, 0,13,30.00,40.00,SummerDesignDay
8,17.488473222557489
10,180617569.20354737
308,35920374.14273826
2,1, 7,21, 0,13,40.00,50.00,SummerDesignDay
8,17.542913447755134
10,181077408.7077338
308,27401965.3155203
2,1, 7,21, 0,13,50.00,60.00,SummerDesignDay
8,17.59724609886134
10,181548585.20472304
308,30399187.43641628
2,1, 7,21, 0,13, 0.00,60.00,SummerDesignDay
542,23.999441901967474
582,23.998772120869899
622,23.99903690383654
662,23.998994532501713
702,23.998939583462705
2,1, 7,21, 0,14, 0.00,10.00,SummerDesignDay
8,17.6311450462694
10,181833408.03530038
308,38482701.025151249
2,1, 7,21, 0,14,10.00,20.00,SummerDesignDay
8,17.665000449016245
10,182087418.51370464
308,27404390.632840527
2,1, 7,21, 0,14,20.00,30.00,SummerDesignDay
8,17.698812743128934
10,182332511.93214203
308,27656947.707129219
2,1, 7,21, 0,14,30.00,40.00,SummerDesignDay
8,17.732582050940107
10,182576858.42959819
308,40850617.01832264
2,1, 7,21, 0,14,40.00,50.00,SummerDesignDay
8,17.766307345121004
10,182806433.86914075
308,27406519.22983674
2,1, 7,21, 0,14,50.00,60.00,SummerDesignDay
8,17.79999023167558
10,183038429.6085887
308,27385434.471460828
2,1, 7,21, 0,14, 0.00,60.00,SummerDesignDay
542,23.999265090359005
582,23.998766249816098
622,24.05169372392659
662,24.014949284387766
702,23.999018380800924
2,1, 7,21, 0,15, 0.00,10.00,SummerDesignDay
8,17.79999023167558
10,183087038.68110908
308,41075796.06308448
2,1, 7,21, 0,15,10.00,20.00,SummerDesignDay
8,17.79999023167558
10,183105506.52245457
308,27408481.222634004
2,1, 7,21, 0,15,20.00,30.00,SummerDesignDay
8,17.79999023167558
10,183120835.25196634
308,27389035.949651854
2,1, 7,21, 0,15,30.00,40.00,SummerDesignDay
8,17.79999023167558
10,183142254.67473615
308,40984616.77467008
2,1, 7,21, 0,15,40.00,50.00,SummerDesignDay
8,17.79999023167558
10,183155335.3989819
308,27521785.425086649
2,1, 7,21, 0,15,50.00,60.00,SummerDesignDay
8,17.79999023167558
10,183159508.10225175
308,27392638.970336863
2,1, 7,21, 0,15, 0.00,60.00,SummerDesignDay
542,23.999187298844178
582,23.99875280817811
622,24.174124518898826
662,24.085276138764443
702,23.99879359831021
2,1, 7,21, 0,16, 0.00,10.00,SummerDesignDay
8,17.759562446305357
10,182927343.8855507
308,38554770.90404111
2,1, 7,21, 0,16,10.00,20.00,SummerDesignDay
8,17.71907809634183
10,182688315.94504253
308,30338866.09379113
2,1, 7,21, 0,16,20.00,30.00,SummerDesignDay
8,17.67853788661001
10,182430301.5330374
308,27396049.488468399
2,1, 7,21, 0,16,30.00,40.00,SummerDesignDay
8,17.63791796367351
10,182185815.6588351
308,35946819.63627857
2,1, 7,21, 0,16,40.00,50.00,SummerDesignDay
8,17.59724609886134
10,181944823.48443768
308,33124266.41099902
2,1, 7,21, 0,16,50.00,60.00,SummerDesignDay
8,17.55650676726033
10,181678301.3207875
308,27399125.662750056
2,1, 7,21, 0,16, 0.00,60.00,SummerDesignDay
542,23.999119685504785
582,23.998731299460819
622,24.161378605560686
662,24.095577670958975
702,23.99856840759335
2,1, 7,21, 0,17, 0.00,10.00,SummerDesignDay
8,17.50209486331892
10,181487657.98363368
308,25225812.08450207
2,1, 7,21, 0,17,10.00,20.00,SummerDesignDay
8,17.447570789624618
10,181118953.9480938
308,29645045.823696004
2,1, 7,21, 0,17,20.00,30.00,SummerDesignDay
8,17.392929544208135
10,180775072.77365206
308,31732061.436687996
2,1, 7,21, 0,17,30.00,40.00,SummerDesignDay
8,17.33818013976614
10,180422918.1518739
308,30270038.890818709
2,1, 7,21, 0,17,40.00,50.00,SummerDesignDay
8,17.283317298559309
10,179999792.8839345
308,24983729.713997976
2,1, 7,21, 0,17,50.00,60.00,SummerDesignDay
8,17.22833552437677
10,179569513.69967515
308,24973414.03736237
2,1, 7,21, 0,17, 0.00,60.00,SummerDesignDay
542,23.99904426466257
582,23.998715403399534
622,24.051777098816957
662,24.042715266228965
702,23.998504143742978
2,1, 7,21, 0,18, 0.00,10.00,SummerDesignDay
8,17.159453019160176
10,177090397.37328816
308,21986016.946063937
2,1, 7,21, 0,18,10.00,20.00,SummerDesignDay
8,17.090391773337136
10,176511908.17065833
308,21585333.83842275
2,1, 7,21, 0,18,20.00,30.00,SummerDesignDay
8,17.021151077964786
10,176019256.14951075
308,21580005.17920264
2,1, 7,21, 0,18,30.00,40.00,SummerDesignDay
8,16.951729380464653
10,175512596.94583754
308,21574697.206670096
2,1, 7,21, 0,18,40.00,50.00,SummerDesignDay
8,16.882126503829249
10,175002428.8234288
308,21569331.114960378
2,1, 7,21, 0,18,50.00,60.00,SummerDesignDay
8,16.812341807494034
10,174489670.31652157
308,23771369.5784748
2,1, 7,21, 0,18, 0.00,60.00,SummerDesignDay
542,23.999102185572217
582,23.998711775437756
622,23.998077977478997
662,23.998078033844924
702,23.998684229394049
2,1, 7,21, 0,19, 0.00,10.00,SummerDesignDay
8,16.707321072823203
10,161401875.2445971
308,21262434.3117402
2,1, 7,21, 0,19,10.00,20.00,SummerDesignDay
8,16.601881826644556
10,160287692.1180512
308,21003481.048111384
2,1, 7,21, 0,19,20.00,30.00,SummerDesignDay
8,16.496030555252849
10,159421944.01947338
308,21005624.81333328
2,1, 7,21, 0,19,30.00,40.00,SummerDesignDay
8,16.389760181474104
10,158531273.24961076
308,21007776.951444046
2,1, 7,21, 0,19,40.00,50.00,SummerDesignDay
8,16.283067654262039
10,157645941.8744066
308,21009930.91427748
2,1, 7,21, 0,19,50.00,60.00,SummerDesignDay
8,16.17595057957811
10,156762179.18803487
308,21012084.84077837
2,1, 7,21, 0,19, 0.00,60.00,SummerDesignDay
542,23.99927473458915
582,23.998714113986837
622,23.998350039927204
662,23.998380023750106
702,23.999472610653688
2,1, 7,21, 0,20, 0.00,10.00,SummerDesignDay
8,16.097123145563505
10,123094205.40118169
308,19262523.613180207
2,1, 7,21, 0,20,10.00,20.00,SummerDesignDay
8,16.018070242471564
10,121483311.70700062
308,19092463.334743244
2,1, 7,21, 0,20,20.00,30.00,SummerDesignDay
8,15.938779752340516
10,120418667.03429574
308,17449952.690376607
2,1, 7,21, 0,20,30.00,40.00,SummerDesignDay
8,15.85926152575189
10,119311836.78100814
308,16026471.44364994
2,1, 7,21, 0,20,40.00,50.00,SummerDesignDay
8,15.779503718563929
10,118227489.45717748
308,16008347.88378048
2,1, 7,21, 0,20,50.00,60.00,SummerDesignDay
8,15.699515709672767
10,117154662.31935537
308,15989119.55188839
2,1, 7,21, 0,20, 0.00,60.00,SummerDesignDay
542,23.99969948047466
582,23.99866768216786
622,23.99921497627142
662,23.999290397766477
702,23.999837829287065
2,1, 7,21, 0,21, 0.00,10.00,SummerDesignDay
8,15.63389147320404
10,108263066.5431785
308,15969404.39850299
2,1, 7,21, 0,21,10.00,20.00,SummerDesignDay
8,15.56810827419793
10,107185010.32671485
308,15949211.026579299
2,1, 7,21, 0,21,20.00,30.00,SummerDesignDay
8,15.502170882753524
10,106264192.54030426
308,18298163.10301891
2,1, 7,21, 0,21,30.00,40.00,SummerDesignDay
8,15.436068032613852
10,105324256.41869669
308,19067629.356045244
2,1, 7,21, 0,21,40.00,50.00,SummerDesignDay
8,15.369804371206009
10,104389696.03739405
308,19071825.615522855
2,1, 7,21, 0,21,50.00,60.00,SummerDesignDay
8,15.303384603594449
10,103449250.78373502
308,19076207.816698024
2,1, 7,21, 0,21, 0.00,60.00,SummerDesignDay
542,23.99984979845911
582,23.998767260321114
622,23.999570583359689
662,23.999636969232513
702,23.999923804522223
2,1, 7,21, 0,22, 0.00,10.00,SummerDesignDay
8,15.236797685071274
10,61644072.14297034
308,17397798.343271279
2,1, 7,21, 0,22,10.00,20.00,SummerDesignDay
8,15.170047891787942
10,61241816.74970526
308,17243620.161804599
2,1, 7,21, 0,22,20.00,30.00,SummerDesignDay
8,15.103134826860483
10,60828515.1660286
308,15242617.16487541
2,1, 7,21, 0,22,30.00,40.00,SummerDesignDay
8,15.036063385178485
10,61467396.21611395
308,11439621.29845318
2,1, 7,21, 0,22,40.00,50.00,SummerDesignDay
8,14.968821767219835
10,59995371.51976343
308,12392259.347294135
2,1, 7,21, 0,22,50.00,60.00,SummerDesignDay
8,14.90141525878635
10,60631604.2469788
308,14997880.534335679
2,1, 7,21, 0,22, 0.00,60.00,SummerDesignDay
542,23.61503400921863
582,23.99880103992552
622,23.6437678191528
662,23.544715008099986
702,24.073732782810969
2,1, 7,21, 0,23, 0.00,10.00,SummerDesignDay
8,14.848873673278373
10,60298605.86186657
308,16842101.491582063
2,1, 7,21, 0,23,10.00,20.00,SummerDesignDay
8,14.796237168136719
10,59962416.10217108
308,16818903.35064737
2,1, 7,21, 0,23,20.00,30.00,SummerDesignDay
8,14.743494321455645
10,59623346.928802
308,16837505.534926613
2,1, 7,21, 0,23,30.00,40.00,SummerDesignDay
8,14.690649975253665
10,59281575.72564051
308,15908702.530688558
2,1, 7,21, 0,23,40.00,50.00,SummerDesignDay
8,14.637704281233117
10,58936961.43623465
308,10008810.002072372
2,1, 7,21, 0,23,50.00,60.00,SummerDesignDay
8,14.584656914839757
10,58591254.90677933
308,9851089.174022124
2,1, 7,21, 0,23, 0.00,60.00,SummerDesignDay
542,23.28879110935459
582,23.998830921034825
622,22.894830409166617
662,22.689092385891568
702,23.905597483469469
2,1, 7,21, 0,24, 0.00,10.00,SummerDesignDay
8,14.531507212058875
10,57458909.418391767
308,16005503.715665853
2,1, 7,21, 0,24,10.00,20.00,SummerDesignDay
8,14.47825496413355
10,57107969.06659245
308,17498641.139712108
2,1, 7,21, 0,24,20.00,30.00,SummerDesignDay
8,14.4249000133173
10,56709360.22263936
308,16825048.355767084
2,1, 7,21, 0,24,30.00,40.00,SummerDesignDay
8,14.371447531304272
10,56709360.22263936
308,17570114.65103246
2,1, 7,21, 0,24,40.00,50.00,SummerDesignDay
8,14.31788619902223
10,56709360.22263936
308,14336679.353958188
2,1, 7,21, 0,24,50.00,60.00,SummerDesignDay
8,14.264220970176066
10,56709360.22263936
308,10672889.743856905
2,1, 7,21, 0,24, 0.00,60.00,SummerDesignDay
542,22.9923620047155
582,23.996990484029394
622,22.304376705803518
662,22.035765487329497
702,23.632370356065935
3,1, 7,21, 0,SummerDesignDay
543,48.41507266893345,43.925530400298779,11,10,54.15448532313527, 7,60
583,48.463753665021297,46.64034320677393,20,60,50.07388235250052, 6,30
623,51.187168420820949,45.09979280617237,10,60,56.257348540660448, 6,40
663,50.83306851001183,44.216608332376868,10,60,57.74145454209897, 6,40
703,46.88693862229865,44.4225977170026,10,40,49.317527092883789, 7,60
4,1, 7
7,22.2505,16.5,21, 5,60,28.9,21,14,60
1,FORT MCMURRAY AP ANN HTG 99.6% CONDNS DB,  56.65,-111.22,  -7.00, 369.10
2,1, 1,21, 0, 1, 0.00,10.00,WinterDesignDay
8,-36.2
10,56709361.1149509
308,920876103.728958
2,1, 1,21, 0, 1,10.00,20.00,WinterDesignDay
8,-36.2
10,56709361.01579724
308,920993908.1422687
2,1, 1,21, 0, 1,20.00,30.00,WinterDesignDay
8,-36.2
10,56709361.01578978
308,921052906.1815131
2,1, 1,21, 0, 1,30.00,40.00,WinterDesignDay
8,-36.2
10,56709360.22263936
308,921095119.7753792
2,1, 1,21, 0, 1,40.00,50.00,WinterDesignDay
8,-36.2
10,56709360.22263936
308,924035270.5562976
2,1, 1,21, 0, 1,50.00,60.00,WinterDesignDay
8,-36.2
10,56709360.22263936
308,925238462.2980056
2,1, 1,21, 0, 1, 0.00,60.00,WinterDesignDay
542,17.999996376934445
582,21.998916475593263
622,17.999985685931177
662,17.99998016065025
702,17.999984407865616
2,1, 1,21, 0, 2, 0.00,10.00,WinterDesignDay
8,-36.2
10,56709360.22263937
308,882901959.8242456
2,1, 1,21, 0, 2,10.00,20.00,WinterDesignDay
8,-36.2
10,56709360.22263937
308,882891183.3932302
2,1, 1,21, 0, 2,20.00,30.00,WinterDesignDay
8,-36.2
10,56709360.222639378
308,883261197.8638969
2,1, 1,21, 0, 2,30.00,40.00,WinterDesignDay
8,-36.2
10,56709360.22263936
308,883669570.2086552
2,1, 1,21, 0, 2,40.00,50.00,WinterDesignDay
8,-36.2
10,56709360.22263936
308,882654720.1423395
2,1, 1,21, 0, 2,50.00,60.00,WinterDesignDay
8,-36.2
10,56709360.22263936
308,880814163.4777919
2,1, 1,21, 0, 2, 0.00,60.00,WinterDesignDay
542,17.9999982544126
582,18.83994962706338
622,17.999987922969287
662,17.999992090949509
702,17.999993757264876
2,1, 1,21, 0, 3, 0.00,10.00,WinterDesignDay
8,-36.2
10,56709360.22263936
308,885448221.2743692
2,1, 1,21, 0, 3,10.00,20.00,WinterDesignDay
8,-36.2
10,56709360.22263936
308,883778546.9237014
2,1, 1,21, 0, 3,20.00,30.00,WinterDesignDay
8,-36.2
10,56709360.22263936
308,884547902.4713885
2,1, 1,21, 0, 3,30.00,40.00,WinterDesignDay
8,-36.2
10,56709360.22263936
308,888786671.1995922
2,1, 1,21, 0, 3,40.00,50.00,WinterDesignDay
8,-36.2
10,56709360.22263936
308,889009302.2786405
2,1, 1,21, 0, 3,50.00,60.00,WinterDesignDay
8,-36.2
10,56709360.22263936
308,889148140.3511559
2,1, 1,21, 0, 3, 0.00,60.00,WinterDesignDay
542,17.999997048269628
582,18.000339577689329
622,17.999982599044999
662,17.999987897607445
702,17.99999010984401
2,1, 1,21, 0, 4, 0.00,10.00,WinterDesignDay
8,-36.2
10,56709360.22263936
308,889266278.4960764
2,1, 1,21, 0, 4,10.00,20.00,WinterDesignDay
8,-36.2
10,56709360.22263936
308,889351954.8810697
2,1, 1,21, 0, 4,20.00,30.00,WinterDesignDay
8,-36.2
10,56709360.22263936
308,889425812.564719
2,1, 1,21, 0, 4,30.00,40.00,WinterDesignDay
8,-36.2
10,56709360.22263936
308,887881800.9068635
2,1, 1,21, 0, 4,40.00,50.00,WinterDesignDay
8,-36.2
10,56709360.22263936
308,885602560.9939483
2,1, 1,21, 0, 4,50.00,60.00,WinterDesignDay
8,-36.2
10,56709360.22263936
308,885601542.4357878
2,1, 1,21, 0, 4, 0.00,60.00,WinterDesignDay
542,17.999997153947996
582,17.998742569894167
622,17.999985473902915
662,17.999989636099728
702,17.999990903546899
2,1, 1,21, 0, 5, 0.00,10.00,WinterDesignDay
8,-36.2
10,56709360.22263936
308,885588846.0406352
2,1, 1,21, 0, 5,10.00,20.00,WinterDesignDay
8,-36.2
10,56709360.22263936
308,886080912.183628
2,1, 1,21, 0, 5,20.00,30.00,WinterDesignDay
8,-36.2
10,56709360.22263936
308,889602565.0933056
2,1, 1,21, 0, 5,30.00,40.00,WinterDesignDay
8,-36.2
10,56709360.22263936
308,889620894.849646
2,1, 1,21, 0, 5,40.00,50.00,WinterDesignDay
8,-36.2
10,56709360.22263936
308,889640711.3096652
2,1, 1,21, 0, 5,50.00,60.00,WinterDesignDay
8,-36.2
10,56709360.22263936
308,889660754.7944124
2,1, 1,21, 0, 5, 0.00,60.00,WinterDesignDay
542,17.99999718440187
582,17.998745531911366
622,17.999986609159959
662,17.99999041426149
702,17.99999114283345
2,1, 1,21, 0, 6, 0.00,10.00,WinterDesignDay
8,-36.2
10,56709360.22263936
308,889680106.40992
2,1, 1,21, 0, 6,10.00,20.00,WinterDesignDay
8,-36.2
10,56709360.22263936
308,889698623.2693601
2,1, 1,21, 0, 6,20.00,30.00,WinterDesignDay
8,-36.2
10,56709360.22263936
308,887570498.0162428
2,1, 1,21, 0, 6,30.00,40.00,WinterDesignDay
8,-36.2
10,56709360.22263936
308,885781031.445618
2,1, 1,21, 0, 6,40.00,50.00,WinterDesignDay
8,-36.2
10,56709360.22263936
308,885746640.2488805
2,1, 1,21, 0, 6,50.00,60.00,WinterDesignDay
8,-36.2
10,56709360.22263936
308,885707879.3830285
2,1, 1,21, 0, 6, 0.00,60.00,WinterDesignDay
542,17.999997193573419
582,17.99874654232578
622,17.99998709044856
662,17.999990775641114
702,17.99999121876022
2,1, 1,21, 0, 7, 0.00,10.00,WinterDesignDay
8,-36.2
10,56709360.222639378
308,915909701.2861712
2,1, 1,21, 0, 7,10.00,20.00,WinterDesignDay
8,-36.2
10,56709360.22263936
308,900522212.6756305
2,1, 1,21, 0, 7,20.00,30.00,WinterDesignDay
8,-36.2
10,56709360.22263936
308,898181767.3907937
2,1, 1,21, 0, 7,30.00,40.00,WinterDesignDay
8,-36.2
10,56709360.22263936
308,898402410.7151681
2,1, 1,21, 0, 7,40.00,50.00,WinterDesignDay
8,-36.2
10,56709360.22263936
308,896851755.9728807
2,1, 1,21, 0, 7,50.00,60.00,WinterDesignDay
8,-36.2
10,56709360.22263936
308,896679683.5208434
2,1, 1,21, 0, 7, 0.00,60.00,WinterDesignDay
542,17.999997782882628
582,17.999033762189855
622,17.9999900472787
662,17.999992739507908
702,19.95423415734713
2,1, 1,21, 0, 8, 0.00,10.00,WinterDesignDay
8,-36.2
10,61764760.11641279
308,1060958149.5593457
2,1, 1,21, 0, 8,10.00,20.00,WinterDesignDay
8,-36.2
10,61745564.823394279
308,958976853.577307
2,1, 1,21, 0, 8,20.00,30.00,WinterDesignDay
8,-36.2
10,61745564.823394279
308,948585356.4347104
2,1, 1,21, 0, 8,30.00,40.00,WinterDesignDay
8,-36.2
10,61745564.823394279
308,946812621.8807621
2,1, 1,21, 0, 8,40.00,50.00,WinterDesignDay
8,-36.2
10,61745564.823394279
308,938393832.8734851
2,1, 1,21, 0, 8,50.00,60.00,WinterDesignDay
8,-36.2
10,61745564.823394279
308,938133609.102771
2,1, 1,21, 0, 8, 0.00,60.00,WinterDesignDay
542,19.964360922149294
582,19.99508754396926
622,19.937553924887039
662,19.94854585200984
702,21.947616892169369
2,1, 1,21, 0, 9, 0.00,10.00,WinterDesignDay
8,-36.2
10,103403807.33044796
308,1039499782.4105884
2,1, 1,21, 0, 9,10.00,20.00,WinterDesignDay
8,-36.2
10,103384612.44154045
308,964423973.1298586
2,1, 1,21, 0, 9,20.00,30.00,WinterDesignDay
8,-36.2
10,103384614.0478543
308,950256479.9592986
2,1, 1,21, 0, 9,30.00,40.00,WinterDesignDay
8,-36.2
10,103384611.8561352
308,950118505.9814651
2,1, 1,21, 0, 9,40.00,50.00,WinterDesignDay
8,-36.2
10,103384613.68534643
308,941468094.5684015
2,1, 1,21, 0, 9,50.00,60.00,WinterDesignDay
8,-36.2
10,103384614.97401278
308,940022388.0479533
2,1, 1,21, 0, 9, 0.00,60.00,WinterDesignDay
542,21.964087112172324
582,21.982205538017934
622,21.940989442897718
662,21.95602297602781
702,21.99977826932071
2,1, 1,21, 0,10, 0.00,10.00,WinterDesignDay
8,-36.2
10,132924050.19869665
308,915617031.129976
2,1, 1,21, 0,10,10.00,20.00,WinterDesignDay
8,-36.2
10,132957634.98712361
308,910903124.5009674
2,1, 1,21, 0,10,20.00,30.00,WinterDesignDay
8,-36.2
10,132924054.49245233
308,909547084.2380476
2,1, 1,21, 0,10,30.00,40.00,WinterDesignDay
8,-36.2
10,132924056.66371341
308,907530334.5850008
2,1, 1,21, 0,10,40.00,50.00,WinterDesignDay
8,-36.2
10,132924058.63817963
308,904968312.1014075
2,1, 1,21, 0,10,50.00,60.00,WinterDesignDay
8,-36.2
10,132924060.31666345
308,904183343.2457463
2,1, 1,21, 0,10, 0.00,60.00,WinterDesignDay
542,21.99999926613265
582,21.99882807721338
622,21.999999845235938
662,22.00000013228443
702,22.20589926735852
2,1, 1,21, 0,11, 0.00,10.00,WinterDesignDay
8,-36.2
10,132924056.13646044
308,901900519.2433765
2,1, 1,21, 0,11,10.00,20.00,WinterDesignDay
8,-36.2
10,132924058.39963204
308,901475133.3069142
2,1, 1,21, 0,11,20.00,30.00,WinterDesignDay
8,-36.2
10,132924061.74437237
308,901133078.4509661
2,1, 1,21, 0,11,30.00,40.00,WinterDesignDay
8,-36.2