Program Version,EnergyPlus, Version 8.9.0-eba93e8e1b, YMD=2019.03.28 13:20
1,5,Environment Title[],Latitude[deg],Longitude[deg],Time Zone[],Elevation[m]
2,8,Day of Simulation[],Month[],Day of Month[],DST Indicator[1=yes 0=no],Hour[],StartMinute[],EndMinute[],DayType
3,5,Cumulative Day of Simulation[],Month[],Day of Month[],DST Indicator[1=yes 0=no],DayType  ! When Daily Report Variables Requested
4,2,Cumulative Days of Simulation[],Month[]  ! When Monthly Report Variables Requested
5,1,Cumulative Days of Simulation[] ! When Run Period Report Variables Requested
6,1,Calendar Year of Simulation[] ! When Annual Report Variables Requested
7,9,Environment,Site Outdoor Air Drybulb Temperature [C] !Monthly [Value,Min,Day,Hour,Minute,Max,Day,Hour,Minute]
8,1,Environment,Site Outdoor Air Wetbulb Temperature [C] !TimeStep
1125,1,ALL_ST=WAREHOUSE - FINE - REFRIGERATED_FL=STORY 3_SCH=A,Zone Air Temperature [C] !Hourly
1126,7,ALL_ST=WAREHOUSE - FINE - REFRIGERATED_FL=STORY 3_SCH=A,Zone Air Relative Humidity [%] !Daily [Value,Min,Hour,Minute,Max,Hour,Minute]
1165,1,ALL_ST=WAREHOUSE - FINE_FL=STORY 4_SCH=A,Zone Air Temperature [C] !Hourly
1166,7,ALL_ST=WAREHOUSE - FINE_FL=STORY 4_SCH=A,Zone Air Relative Humidity [%] !Daily [Value,Min,Hour,Minute,Max,Hour,Minute]
1205,1,ALL_ST=WAREHOUSE - MED/BLK - REFRIGERATED_FL=STORY 3_SCH=A,Zone Air Temperature [C] !Hourly
1206,7,ALL_ST=WAREHOUSE - MED/BLK - REFRIGERATED_FL=STORY 3_SCH=A,Zone Air Relative Humidity [%] !Daily [Value,Min,Hour,Minute,Max,Hour,Minute]
1245,1,ALL_ST=WAREHOUSE - MED/BLK2 - REFRIGERATED_FL=STORY 4_SCH=A,Zone Air Temperature [C] !Hourly
1246,7,ALL_ST=WAREHOUSE - MED/BLK2 - REFRIGERATED_FL=STORY 4_SCH=A,Zone Air Relative Humidity [%] !Daily [Value,Min,Hour,Minute,Max,Hour,Minute]
1285,1,ALL_ST=WAREHOUSE - MED/BLK2_FL=STORY 3_SCH=A,Zone Air Temperature [C] !Hourly
1286,7,ALL_ST=WAREHOUSE - MED/BLK2_FL=STORY 3_SCH=A,Zone Air Relative Humidity [%] !Daily [Value,Min,Hour,Minute,Max,Hour,Minute]
1325,1,ALL_ST=WAREHOUSE - MED/BLK_FL=STORY 4_SCH=A,Zone Air Temperature [C] !Hourly
1326,7,ALL_ST=WAREHOUSE - MED/BLK_FL=STORY 4_SCH=A,Zone Air Relative Humidity [%] !Daily [Value,Min,Hour,Minute,Max,Hour,Minute]
1365,1,ALL_ST=WHOLEBUILDING_FL=STORY 1_SCH=A,Zone Air Temperature [C] !Hourly
1366,7,ALL_ST=WHOLEBUILDING_FL=STORY 1_SCH=A,Zone Air Relative Humidity [%] !Daily [Value,Min,Hour,Minute,Max,Hour,Minute]
1405,1,ALL_ST=WHOLEBUILDING_FL=STORY 1_SCH=E,Zone Air Temperature [C] !Hourly
1406,7,ALL_ST=WHOLEBUILDING_FL=STORY 1_SCH=E,Zone Air Relative Humidity [%] !Daily [Value,Min,Hour,Minute,Max,Hour,Minute]
1445,1,ALL_ST=WHOLEBUILDING_FL=STORY 1_SCH=E 1,Zone Air Temperature [C] !Hourly
1446,7,ALL_ST=WHOLEBUILDING_FL=STORY 1_SCH=E 1,Zone Air Relative Humidity [%] !Daily [Value,Min,Hour,Minute,Max,Hour,Minute]
1485,1,ALL_ST=WHOLEBUILDING_FL=STORY 1_SCH=E 2,Zone Air Temperature [C] !Hourly
1486,7,ALL_ST=WHOLEBUILDING_FL=STORY 1_SCH=E 2,Zone Air Relative Humidity [%] !Daily [Value,Min,Hour,Minute,Max,Hour,Minute]
1525,1,ALL_ST=WHOLEBUILDING_FL=STORY 2_SCH=A,Zone Air Temperature [C] !Hourly
1526,7,ALL_ST=WHOLEBUILDING_FL=STORY 2_SCH=A,Zone Air Relative Humidity [%] !Daily [Value,Min,Hour,Minute,Max,Hour,Minute]
1565,1,ALL_ST=WHOLEBUILDING_FL=STORY 2_SCH=D,Zone Air Temperature [C] !Hourly
1566,7,ALL_ST=WHOLEBUILDING_FL=STORY 2_SCH=D,Zone Air Relative Humidity [%] !Daily [Value,Min,Hour,Minute,Max,Hour,Minute]
1605,1,ALL_ST=WHOLEBUILDING_FL=STORY 2_SCH=E,Zone Air Temperature [C] !Hourly
1606,7,ALL_ST=WHOLEBUILDING_FL=STORY 2_SCH=E,Zone Air Relative Humidity [%] !Daily [Value,Min,Hour,Minute,Max,Hour,Minute]
1645,1,ALL_ST=WHOLEBUILDING_FL=STORY 2_SCH=E 1,Zone Air Temperature [C] !Hourly
1646,7,ALL_ST=WHOLEBUILDING_FL=STORY 2_SCH=E 1,Zone Air Relative Humidity [%] !Daily [Value,Min,Hour,Minute,Max,Hour,Minute]
1685,1,ALL_ST=WHOLEBUILDING_FL=STORY 2_SCH=H,Zone Air Temperature [C] !Hourly
1686,7,ALL_ST=WHOLEBUILDING_FL=STORY 2_SCH=H,Zone Air Relative Humidity [%] !Daily [Value,Min,Hour,Minute,Max,Hour,Minute]
1725,1,ALL_ST=WHOLEBUILDING_FL=STORY 3_SCH=B,Zone Air Temperature [C] !Hourly
1726,7,ALL_ST=WHOLEBUILDING_FL=STORY 3_SCH=B,Zone Air Relative Humidity [%] !Daily [Value,Min,Hour,Minute,Max,Hour,Minute]
1765,1,ALL_ST=WHOLEBUILDING_FL=STORY 3_SCH=E,Zone Air Temperature [C] !Hourly
1766,7,ALL_ST=WHOLEBUILDING_FL=STORY 3_SCH=E,Zone Air Relative Humidity [%] !Daily [Value,Min,Hour,Minute,Max,Hour,Minute]
1805,1,ALL_ST=WHOLEBUILDING_FL=STORY 4_SCH=A,Zone Air Temperature [C] !Hourly
1806,7,ALL_ST=WHOLEBUILDING_FL=STORY 4_SCH=A,Zone Air Relative Humidity [%] !Daily [Value,Min,Hour,Minute,Max,Hour,Minute]
1845,1,ALL_ST=WHOLEBUILDING_FL=STORY 4_SCH=E,Zone Air Temperature [C] !Hourly
1846,7,ALL_ST=WHOLEBUILDING_FL=STORY 4_SCH=E,Zone Air Relative Humidity [%] !Daily [Value,Min,Hour,Minute,Max,Hour,Minute]
1885,1,ALL_ST=WORKSHOP SPACE_FL=STORY 1_SCH=A,Zone Air Temperature [C] !Hourly
1886,7,ALL_ST=WORKSHOP SPACE_FL=STORY 1_SCH=A,Zone Air Relative Humidity [%] !Daily [Value,Min,Hour,Minute,Max,Hour,Minute]
10,1,Electricity:Facility [J] !TimeStep
891,1,Gas:Facility [J] !TimeStep
End of Data Dictionary
1,FORT MCMURRAY AP ANN CLG .4% CONDNS DB=>MWB,  56.65,-111.22,  -7.00, 369.10
2,1, 7,21, 0, 1, 0.00,10.00,SummerDesignDay
8,14.218136923962174
10,73814097.4554796
891,6670418.110713024
2,1, 7,21, 0, 1,10.00,20.00,SummerDesignDay
8,14.171982153293495
10,73083299.81749152
891,14334628.339044432
2,1, 7,21, 0, 1,20.00,30.00,SummerDesignDay
8,14.125744780286427
10,72769880.39373759
891,20916870.091569365
2,1, 7,21, 0, 1,30.00,40.00,SummerDesignDay
8,14.079436086331978
10,72423783.68035919
891,20975494.90607519
2,1, 7,21, 0, 1,40.00,50.00,SummerDesignDay
8,14.033050387896898
10,72100724.31925477
891,15820857.499910005
2,1, 7,21, 0, 1,50.00,60.00,SummerDesignDay
8,13.986581233564835
10,71793432.94509037
891,5199627.716707442
2,1, 7,21, 0, 1, 0.00,60.00,SummerDesignDay
1125,26.404688213802037
1165,24.986567624305399
1205,25.20014715165297
1245,25.736950083753759
1285,26.429502088088318
1325,24.171137980661514
1365,23.65581951955154
1405,23.682307013989886
1445,23.249008990320687
1485,22.890922056561068
1525,25.898854266221876
1565,24.976550385364108
1605,23.655129547545486
1645,24.380635778717335
1685,23.998676841033686
1725,23.998539574364146
1765,24.032201299855985
1805,25.503979891443576
1845,23.15612867852029
1885,22.98533329235603
2,1, 7,21, 0, 2, 0.00,10.00,SummerDesignDay
8,13.95555882260429
10,60381935.5693791
891,20322238.224931145
2,1, 7,21, 0, 2,10.00,20.00,SummerDesignDay
8,13.924507755336454
10,60001795.779880437
891,20346146.865541657
2,1, 7,21, 0, 2,20.00,30.00,SummerDesignDay
8,13.893416042989206
10,59949665.04500614
891,16269071.889082769
2,1, 7,21, 0, 2,30.00,40.00,SummerDesignDay
8,13.862289589689029
10,59889257.60810285
891,4079376.3907745566
2,1, 7,21, 0, 2,40.00,50.00,SummerDesignDay
8,13.831134407608739
10,59833664.27932472
891,20191704.212359623
2,1, 7,21, 0, 2,50.00,60.00,SummerDesignDay
8,13.799938415548118
10,59783269.20796552
891,20258265.439550949
2,1, 7,21, 0, 2, 0.00,60.00,SummerDesignDay
1125,26.14001962578025
1165,24.711477520346365
1205,24.97282047838091
1245,25.263472648235035
1285,26.25328242467174
1325,23.872574034227325
1365,23.425811130143388
1405,23.445082076842568
1445,23.01595577665343
1485,22.657217434820056
1525,25.67356106803807
1565,24.88132873981647
1605,23.439867933623089
1645,24.134512629888108
1685,23.999011849735607
1725,25.289623029824225
1765,23.773647749952777
1805,25.199781514015134
1845,22.778393699409607
1885,22.677498645520406
2,1, 7,21, 0, 3, 0.00,10.00,SummerDesignDay
8,13.776521671948676
10,55501950.319740097
891,12000.0
2,1, 7,21, 0, 3,10.00,20.00,SummerDesignDay
8,13.753085235778466
10,55455460.444370549
891,17563357.010589549
2,1, 7,21, 0, 3,20.00,30.00,SummerDesignDay
8,13.729636002354969
10,55407995.21370804
891,12000.0
2,1, 7,21, 0, 3,30.00,40.00,SummerDesignDay
8,13.706147375533054
10,55358165.273331288
891,17575427.485946366
2,1, 7,21, 0, 3,40.00,50.00,SummerDesignDay
8,13.682651961920304
10,55310273.40550188
891,12000.0
2,1, 7,21, 0, 3,50.00,60.00,SummerDesignDay
8,13.659136670643687
10,55261426.198387939
891,17585551.654138995
2,1, 7,21, 0, 3, 0.00,60.00,SummerDesignDay
1125,25.864742619404479
1165,24.413514888861206
1205,24.72619087831896
1245,24.815925040715617
1285,26.052273960131428
1325,23.548451087620746
1365,23.199171579812235
1405,23.20369513882355
1445,22.779661267387867
1485,22.421684981610786
1525,25.440195863762737
1565,24.726655114373686
1605,23.219723855084327
1645,23.883362481644029
1685,23.99867310449984
1725,25.51638215443604
1765,23.512645176139185
1805,24.857208926033608
1845,22.403226327599854
1885,22.385304415854355
2,1, 7,21, 0, 4, 0.00,10.00,SummerDesignDay
8,13.63560137410855
10,55213307.80153338
891,12000.0
2,1, 7,21, 0, 4,10.00,20.00,SummerDesignDay
8,13.612040802606578
10,55165575.41787946
891,17595854.198091624
2,1, 7,21, 0, 4,20.00,30.00,SummerDesignDay
8,13.58846620506876
10,55117311.064761098
891,12000.0
2,1, 7,21, 0, 4,30.00,40.00,SummerDesignDay
8,13.56487178447336
10,55070667.2130012
891,17606330.16022168
2,1, 7,21, 0, 4,40.00,50.00,SummerDesignDay
8,13.541257354069103
10,55022256.56104454
891,12000.0
2,1, 7,21, 0, 4,50.00,60.00,SummerDesignDay
8,13.517617463812285
10,54976725.22902746
891,17616975.307911476
2,1, 7,21, 0, 4, 0.00,60.00,SummerDesignDay
1125,25.622736631922576
1165,24.157344618724748
1205,24.512192818743377
1245,24.449559612316049
1285,25.876743909246888
1325,23.273939903868557
1365,23.019272795507026
1405,23.008077198027519
1445,22.588682908747697
1485,22.234306528671398
1525,25.244005559870375
1565,24.584985891759314
1605,23.039118123924046
1645,23.673694154365895
1685,23.99866744044859
1725,25.182443155455095
1765,23.29297445097362
1805,24.557300683529929
1845,22.10052266177489
1885,22.152960251313855
2,1, 7,21, 0, 5, 0.00,10.00,SummerDesignDay
8,13.50185415824011
10,54932474.316193189
891,12000.0
2,1, 7,21, 0, 5,10.00,20.00,SummerDesignDay
8,13.486076034032447
10,54906160.79032182
891,17627785.50605801
2,1, 7,21, 0, 5,20.00,30.00,SummerDesignDay
8,13.470289340350983
10,54871587.74144405
891,12000.0
2,1, 7,21, 0, 5,30.00,40.00,SummerDesignDay
8,13.454493322631063
10,54842337.07488324
891,17638756.770728049
2,1, 7,21, 0, 5,40.00,50.00,SummerDesignDay
8,13.438688835118548
10,54807711.85100274
891,12000.0
2,1, 7,21, 0, 5,50.00,60.00,SummerDesignDay
8,13.422888173889437
10,54781059.04913037
891,17649885.320906544
2,1, 7,21, 0, 5, 0.00,60.00,SummerDesignDay
1125,25.396532778138938
1165,23.98054974951519
1205,24.306761224972108
1245,24.32979135320966
1285,25.715416285518058
1325,23.19629896349088
1365,22.854611297082938
1405,22.826852726515708
1445,22.411206861412098
1485,22.061758257485655
1525,25.150404837723817
1565,24.509018512881725
1605,22.869599021169674
1645,23.482511134596029
1685,23.998659223931509
1725,25.076601346052486
1765,23.14802945781766
1805,24.339128325637124
1845,21.876251345807206
1885,21.943387623218987
2,1, 7,21, 0, 6, 0.00,10.00,SummerDesignDay
8,13.438688835118548
10,54767472.745355207
891,12000.0
2,1, 7,21, 0, 6,10.00,20.00,SummerDesignDay
8,13.454493322631063
10,54761027.77043175
891,17661162.78727011
2,1, 7,21, 0, 6,20.00,30.00,SummerDesignDay
8,13.470289340350983
10,54745935.30217694
891,12000.0
2,1, 7,21, 0, 6,30.00,40.00,SummerDesignDay
8,13.486076034032447
10,54739690.48886687
891,16931727.633738568
2,1, 7,21, 0, 6,40.00,50.00,SummerDesignDay
8,13.50185415824011
10,54724337.526957977
891,744212.4822136584
2,1, 7,21, 0, 6,50.00,60.00,SummerDesignDay
8,13.517617463812285
10,54719157.810831729
891,14403273.71146069
2,1, 7,21, 0, 6, 0.00,60.00,SummerDesignDay
1125,25.23578100563328
1165,24.073992365480679
1205,24.152331048890095
1245,25.145058639845734
1285,25.604779407175088
1325,23.572333290503634
1365,22.762853780724418
1405,22.72693478411567
1445,22.30381530713112
1485,21.961057234339824
1525,25.45615568794722
1565,24.537917678718789
1605,22.77299317847124
1645,23.377216300794676
1685,23.998644568944486
1725,25.387671285025577
1765,23.138389860177708
1805,24.400609249720607
1845,21.921427937550946
1885,21.83775702793209
2,1, 7,21, 0, 7, 0.00,10.00,SummerDesignDay
8,13.572736920571789
10,68802980.93275112
891,4525759.738789667
2,1, 7,21, 0, 7,10.00,20.00,SummerDesignDay
8,13.627748229152554
10,64514609.480097029
891,11911891.549376945
2,1, 7,21, 0, 7,20.00,30.00,SummerDesignDay
8,13.682651961920304
10,64251429.324096608
891,6190521.798745372
2,1, 7,21, 0, 7,30.00,40.00,SummerDesignDay
8,13.737448093244995
10,64204183.25073065
891,9301970.34349816
2,1, 7,21, 0, 7,40.00,50.00,SummerDesignDay
8,13.792137011831216
10,64564086.10713199
891,8290414.219266269
2,1, 7,21, 0, 7,50.00,60.00,SummerDesignDay
8,13.846719282840333
10,65357886.798270229
891,7155762.324207192
2,1, 7,21, 0, 7, 0.00,60.00,SummerDesignDay
1125,25.192310798642116
1165,23.996859058177237
1205,24.10856436823156
1245,26.430286067722009
1285,24.04104182452464
1325,23.879882022202918
1365,22.819036999918226
1405,22.799587663469965
1445,22.345904962204459
1485,22.012030443261627
1525,25.891187189980174
1565,24.49504003906002
1605,22.81866053890138
1645,23.419086624624716
1685,23.99891589940843
1725,25.757381324194954
1765,23.15304500690794
1805,23.985569403808247
1845,22.311777974252
1885,21.938058445348536
2,1, 7,21, 0, 8, 0.00,10.00,SummerDesignDay
8,13.978831900527043
10,102025163.6129299
891,11029399.605920446
2,1, 7,21, 0, 8,10.00,20.00,SummerDesignDay
8,14.110321014287419
10,101162751.54762699
891,13530193.742884249
2,1, 7,21, 0, 8,20.00,30.00,SummerDesignDay
8,14.241191509616986
10,102744646.79648547
891,4495050.058311217
2,1, 7,21, 0, 8,30.00,40.00,SummerDesignDay
8,14.371447531304272
10,103953109.50935637
891,18020218.51325859
2,1, 7,21, 0, 8,40.00,50.00,SummerDesignDay
8,14.501093766564925
10,105201565.97100063
891,12000.0
2,1, 7,21, 0, 8,50.00,60.00,SummerDesignDay
8,14.630134792273804
10,106749897.18762581
891,17946080.921930255
2,1, 7,21, 0, 8, 0.00,60.00,SummerDesignDay
1125,25.501565464380293
1165,23.99994781030934
1205,24.35536640894364
1245,28.382658221510469
1285,23.99994400769251
1325,23.999948046632779
1365,23.480196374320319
1405,23.149239262171336
1445,22.6434539039188
1485,22.325701330295716
1525,26.543768807274458
1565,23.98369258931235
1605,23.10222746803791
1645,23.70531148557183
1685,23.999221963252937
1725,26.12204401665979
1765,23.441504411037003
1805,23.999946149525475
1845,23.31440895867699
1885,22.77030602813584
2,1, 7,21, 0, 9, 0.00,10.00,SummerDesignDay
8,14.773641492809972
10,251681930.53594045
891,15747608.034498007
2,1, 7,21, 0, 9,10.00,20.00,SummerDesignDay
8,14.91640948124148
10,258353959.33959855
891,14258706.335045949
2,1, 7,21, 0, 9,20.00,30.00,SummerDesignDay
8,15.05843890714102
10,261471166.25089617
891,16156097.506299653
2,1, 7,21, 0, 9,30.00,40.00,SummerDesignDay
8,15.199735893563798
10,264588066.34140019
891,23025436.725390436
2,1, 7,21, 0, 9,40.00,50.00,SummerDesignDay
8,15.340306256439395
10,268949193.3057489
891,23065134.556598307
2,1, 7,21, 0, 9,50.00,60.00,SummerDesignDay
8,15.48015101768072
10,272866824.2038537
891,23001015.700759554
2,1, 7,21, 0, 9, 0.00,60.00,SummerDesignDay
1125,26.41466042561535
1165,23.999811011934584
1205,25.076922839827945
1245,31.029380300167316
1285,23.999913887727037
1325,23.999834278590077
1365,23.99780540021715
1405,23.925526528966313
1445,23.639907471183876
1485,23.388495636999769
1525,27.420628452142073
1565,23.999907469369139
1605,23.877274136038129
1645,23.998745103948555
1685,23.999331879894883
1725,24.217968581449566
1765,23.977570715012875
1805,23.999861601982788
1845,23.999718373280218
1885,23.947634820190289
2,1, 7,21, 0,10, 0.00,10.00,SummerDesignDay
8,15.60467292907716
10,361536854.9090493
891,33219080.331966774
2,1, 7,21, 0,10,10.00,20.00,SummerDesignDay
8,15.72862731650033
10,367242545.91185197
891,34176798.41378399
2,1, 7,21, 0,10,20.00,30.00,SummerDesignDay
8,15.852017409284228
10,371205853.1485736
891,31414826.56560892
2,1, 7,21, 0,10,30.00,40.00,SummerDesignDay
8,15.974848118364367
10,375028047.1226755
891,30314029.551927188
2,1, 7,21, 0,10,40.00,50.00,SummerDesignDay
8,16.097123145563505
10,378578871.6244748
891,30310008.873481059
2,1, 7,21, 0,10,50.00,60.00,SummerDesignDay
8,16.218846351168599
10,382225406.2737777
891,30301552.74797094
2,1, 7,21, 0,10, 0.00,60.00,SummerDesignDay
1125,27.518951563356955
1165,23.999579984573598
1205,25.990588819266546
1245,33.38199337377798
1285,23.999847255367056
1325,23.999635671768759
1365,23.99926085235288
1405,23.999522922926429
1445,23.999657714315917
1485,23.999445435353115
1525,28.210417702675846
1565,23.999297523854457
1605,23.999488271136554
1645,23.999622108500235
1685,23.99887898665827
1725,23.999522885475014
1765,23.999645581853455
1805,23.99973572446777
1845,23.99947350654384
1885,23.999300528668404
2,1, 7,21, 0,11, 0.00,10.00,SummerDesignDay
8,16.325793027093189
10,420213328.68330237
891,36358555.68719018
2,1, 7,21, 0,11,10.00,20.00,SummerDesignDay
8,16.432322158488288
10,424521265.3058701
891,46677222.14484736
2,1, 7,21, 0,11,20.00,30.00,SummerDesignDay
8,16.538424180249178
10,428136311.8800222
891,46857145.24869195
2,1, 7,21, 0,11,30.00,40.00,SummerDesignDay
8,16.644108396469087
10,431682992.7118259
891,36886550.4418742
2,1, 7,21, 0,11,40.00,50.00,SummerDesignDay
8,16.749376736593655
10,435262384.6651429
891,36846409.815504718
2,1, 7,21, 0,11,50.00,60.00,SummerDesignDay
8,16.854232613237156
10,438481631.41227069
891,56672318.228173349
2,1, 7,21, 0,11, 0.00,60.00,SummerDesignDay
1125,28.450440411023739
1165,23.99939348959232
1205,26.71917686836201
1245,34.56909512604178
1285,23.999804765060433
1325,23.999508884052177
1365,23.99905667665804
1405,23.999188215374188
1445,23.999330904025908
1485,23.99937265621881
1525,28.595020973035206
1565,23.998927059327078
1605,23.998923752645287
1645,23.999263724448018
1685,23.998537513498179
1725,24.01001116680214
1765,23.99933817329553
1805,23.999671335943164
1845,23.99909276206053
1885,23.9991513410035
2,1, 7,21, 0,12, 0.00,10.00,SummerDesignDay
8,16.92390823520069
10,443500851.629514
891,34953588.43555829
2,1, 7,21, 0,12,10.00,20.00,SummerDesignDay
8,16.99340178950456
10,446072097.37197527
891,34695878.683044
2,1, 7,21, 0,12,20.00,30.00,SummerDesignDay
8,17.06272006743463
10,448532835.67970779
891,34671451.91163643
2,1, 7,21, 0,12,30.00,40.00,SummerDesignDay
8,17.131853229172639
10,451289259.04278877
891,37159444.08444244
2,1, 7,21, 0,12,40.00,50.00,SummerDesignDay
8,17.200807172194087
10,453497038.20381698
891,46084755.73360374
2,1, 7,21, 0,12,50.00,60.00,SummerDesignDay
8,17.269582116758607
10,455574763.4089537
891,42765090.57611153
2,1, 7,21, 0,12, 0.00,60.00,SummerDesignDay
1125,29.267191895710153
1165,23.999350656358549
1205,27.259887673946044
1245,35.100047834171629
1285,23.999802611216013
1325,23.999519794190637
1365,23.99895256559826
1405,23.999202331092964
1445,23.99930806680929
1485,23.999348993900978
1525,28.81265226869373
1565,23.99873521865187
1605,23.99877329773479
1645,23.999159382987867
1685,23.99854186230806
1725,24.24240728199639
1765,23.99927212136053
1805,23.999871592917264
1845,23.99908437113086
1885,23.999083986688473
2,1, 7,21, 0,13, 0.00,10.00,SummerDesignDay
8,17.32447360221357
10,456446338.656665
891,36290380.94842742
2,1, 7,21, 0,13,10.00,20.00,SummerDesignDay
8,17.379251291230806
10,458213106.73284068
891,36421044.00545466
2,1, 7,21, 0,13,20.00,30.00,SummerDesignDay
8,17.433921312061729
10,459955816.84389749
891,43286699.32544245
2,1, 7,21, 0,13,30.00,40.00,SummerDesignDay
8,17.488473222557489
10,461678330.678365
891,49788100.90987528
2,1, 7,21, 0,13,40.00,50.00,SummerDesignDay
8,17.542913447755134
10,463293371.56791296
891,36448247.43764971
2,1, 7,21, 0,13,50.00,60.00,SummerDesignDay
8,17.59724609886134
10,464827971.441647
891,36415681.38471344
2,1, 7,21, 0,13, 0.00,60.00,SummerDesignDay
1125,29.888933394409638
1165,23.99940879705588
1205,27.661061481580334
1245,35.55175815883985
1285,23.999816583246788
1325,23.99966201189731
1365,23.999063099419375
1405,23.99906214681148
1445,23.99921841031224
1485,23.999263705585027
1525,29.057612427283997
1565,23.998658749396346
1605,23.99857512735575
1645,23.9991949479034
1685,23.998549571869775
1725,24.68131808535479
1765,23.999278930895597
1805,23.999851554710494
1845,23.999115260610706
1885,23.99909534412397
2,1, 7,21, 0,14, 0.00,10.00,SummerDesignDay
8,17.6311450462694
10,465903070.4709236
891,56672318.228173349
2,1, 7,21, 0,14,10.00,20.00,SummerDesignDay
8,17.665000449016245
10,467014488.0064874
891,37932039.480549599
2,1, 7,21, 0,14,20.00,30.00,SummerDesignDay
8,17.698812743128934
10,468131110.88812187
891,37892347.466622378
2,1, 7,21, 0,14,30.00,40.00,SummerDesignDay
8,17.732582050940107
10,469345280.60439828
891,56672318.228173349
2,1, 7,21, 0,14,40.00,50.00,SummerDesignDay
8,17.766307345121004
10,470567797.4505931
891,37920541.307193119
2,1, 7,21, 0,14,50.00,60.00,SummerDesignDay
8,17.79999023167558
10,471850218.46987548
891,47322785.05308059
2,1, 7,21, 0,14, 0.00,60.00,SummerDesignDay
1125,30.369100560979136
1165,23.99944984972663
1205,28.010152184165319
1245,35.97416849237385
1285,23.99982061887106
1325,23.99974009937016
1365,23.999115426053156
1405,24.004003624532243
1445,23.999075411522239
1485,23.99915059697402
1525,29.275117141087575
1565,23.998592512671875
1605,23.998198283069795
1645,23.999110970590583
1685,23.99852699951435
1725,24.90989578615609
1765,23.999210624938724
1805,23.999862156941949
1845,23.999058651853685
1885,23.999074765603923
2,1, 7,21, 0,15, 0.00,10.00,SummerDesignDay
8,17.79999023167558
10,471758788.7888942
891,47068550.42492216
2,1, 7,21, 0,15,10.00,20.00,SummerDesignDay
8,17.79999023167558
10,472412294.4361173
891,37512380.250752698
2,1, 7,21, 0,15,20.00,30.00,SummerDesignDay
8,17.79999023167558
10,473166416.9093099
891,49335253.918510939
2,1, 7,21, 0,15,30.00,40.00,SummerDesignDay
8,17.79999023167558
10,473898580.73890379
891,44844525.60420236
2,1, 7,21, 0,15,40.00,50.00,SummerDesignDay
8,17.79999023167558
10,474548556.55265638
891,37509830.99842829
2,1, 7,21, 0,15,50.00,60.00,SummerDesignDay
8,17.79999023167558
10,475178324.71231427
891,51214275.06020277
2,1, 7,21, 0,15, 0.00,60.00,SummerDesignDay
1125,30.68452324555263
1165,23.99931116365093
1205,28.30181917508718
1245,36.17193942421492
1285,23.999744147626218
1325,23.99972904109948
1365,23.998903476964274
1405,23.9993485882736
1445,23.999206481722255
1485,23.999291427848794
1525,29.41921030330081
1565,23.998511467268359
1605,23.998232427287474
1645,23.99926383712936
1685,23.99839517148787
1725,24.89523487922162
1765,23.999298605365195
1805,23.999897053091286
1845,23.99929127726823
1885,23.998900853149754
2,1, 7,21, 0,16, 0.00,10.00,SummerDesignDay
8,17.759562446305357
10,476663906.3288291
891,41819045.762379068
2,1, 7,21, 0,16,10.00,20.00,SummerDesignDay
8,17.71907809634183
10,476305336.201724
891,35732817.94277219
2,1, 7,21, 0,16,20.00,30.00,SummerDesignDay
8,17.67853788661001
10,475698566.60072907
891,35702493.731368158
2,1, 7,21, 0,16,30.00,40.00,SummerDesignDay
8,17.63791796367351
10,474903325.0439901
891,42008367.33967618
2,1, 7,21, 0,16,40.00,50.00,SummerDesignDay
8,17.59724609886134
10,473960292.1945321
891,50350450.63589839
2,1, 7,21, 0,16,50.00,60.00,SummerDesignDay
8,17.55650676726033
10,472843030.28180047
891,35745323.757829699
2,1, 7,21, 0,16, 0.00,60.00,SummerDesignDay
1125,30.739050388705026
1165,23.99926118952528
1205,28.44822643401926
1245,35.98577184269773
1285,23.999617309467057
1325,23.999612767372324
1365,23.998645464740866
1405,24.02598753948422
1445,23.999184037636483
1485,23.999266356164623
1525,29.43978593952878
1565,23.99842143257652
1605,23.99814507668184
1645,23.999218793492273
1685,23.998338892070689
1725,24.731080125265625
1765,23.99919891676603
1805,23.99996736957144
1845,23.999271146227156
1885,23.99872896280328
2,1, 7,21, 0,17, 0.00,10.00,SummerDesignDay
8,17.50209486331892
10,466112155.2211454
891,32901624.660562859
2,1, 7,21, 0,17,10.00,20.00,SummerDesignDay
8,17.447570789624618
10,464387135.620966
891,32521192.191016519
2,1, 7,21, 0,17,20.00,30.00,SummerDesignDay
8,17.392929544208135
10,462724697.86066499
891,32506589.061337864
2,1, 7,21, 0,17,30.00,40.00,SummerDesignDay
8,17.33818013976614
10,461055606.1364674
891,32492244.40593011
2,1, 7,21, 0,17,40.00,50.00,SummerDesignDay
8,17.283317298559309
10,459364664.14871987
891,38325378.78337906
2,1, 7,21, 0,17,50.00,60.00,SummerDesignDay
8,17.22833552437677
10,457589866.8820433
891,38826188.14732797
2,1, 7,21, 0,17, 0.00,60.00,SummerDesignDay
1125,30.623413684533224
1165,23.99916614396192
1205,28.453238447907756
1245,35.34643763032512
1285,23.999530380665964
1325,23.99962275628643
1365,23.998556682716843
1405,23.99890652900773
1445,23.999063013796474
1485,23.999164471541538
1525,29.33820964829685
1565,23.99873566714398
1605,23.998026776339349
1645,23.99902055410465
1685,23.998432648527446
1725,24.662847721876337
1765,23.999030732464815
1805,23.9998229631924
1845,23.99909249349217
1885,23.998709930530013
2,1, 7,21, 0,18, 0.00,10.00,SummerDesignDay
8,17.159453019160176
10,438111892.7599263
891,26935891.96084571
2,1, 7,21, 0,18,10.00,20.00,SummerDesignDay
8,17.090391773337136
10,435402604.96754267
891,26057624.540425667
2,1, 7,21, 0,18,20.00,30.00,SummerDesignDay
8,17.021151077964786
10,433071133.8807806
891,26064380.593653118
2,1, 7,21, 0,18,30.00,40.00,SummerDesignDay
8,16.951729380464653
10,430765779.4534995
891,26070932.64305677
2,1, 7,21, 0,18,40.00,50.00,SummerDesignDay
8,16.882126503829249
10,428482817.5505338
891,22984515.903834694
2,1, 7,21, 0,18,50.00,60.00,SummerDesignDay
8,16.812341807494034
10,426184771.0304267
891,21948016.15536593
2,1, 7,21, 0,18, 0.00,60.00,SummerDesignDay
1125,30.380539888603797
1165,23.999338528050826
1205,28.307848023395278
1245,34.19926400582868
1285,23.999535794071634
1325,23.999728418116729
1365,23.99866196612996
1405,23.998964150306987
1445,23.9989331219091
1485,23.99906337092062
1525,29.111215672455264
1565,23.999197092979448
1605,23.997979137673398
1645,23.998950243004868
1685,23.998530775426869
1725,24.682491259149555
1765,23.998900609569774
1805,23.99985156761208
1845,23.999209620420545
1885,23.998811580513395
2,1, 7,21, 0,19, 0.00,10.00,SummerDesignDay
8,16.707321072823203
10,293714438.30902627
891,16609244.921062356
2,1, 7,21, 0,19,10.00,20.00,SummerDesignDay
8,16.601881826644556
10,289065382.0102161
891,15996786.870476485
2,1, 7,21, 0,19,20.00,30.00,SummerDesignDay
8,16.496030555252849
10,285574412.3630615
891,20935275.74430551
2,1, 7,21, 0,19,30.00,40.00,SummerDesignDay
8,16.389760181474104
10,282109531.887
891,23548960.418572997
2,1, 7,21, 0,19,40.00,50.00,SummerDesignDay
8,16.283067654262039
10,278718120.75752887
891,23531915.27628189
2,1, 7,21, 0,19,50.00,60.00,SummerDesignDay
8,16.17595057957811
10,275360202.99999919
891,23477547.70085737
2,1, 7,21, 0,19, 0.00,60.00,SummerDesignDay
1125,29.753661010572768
1165,23.9997872362131
1205,27.85306057275101
1245,32.42881487445593
1285,23.999794434316717
1325,23.999922474071906
1365,23.999632993752824
1405,23.99962135215202
1445,23.999723601088609
1485,23.999779887881699
1525,28.58289749271995
1565,23.99963853686646
1605,23.99949974398656
1645,23.999700895670747
1685,23.999221345341267
1725,24.817269153100616
1765,23.999686223999466
1805,23.999944383523557
1845,23.999852928061789
1885,23.999645809999703
2,1, 7,21, 0,20, 0.00,10.00,SummerDesignDay
8,16.097123145563505
10,170158538.2853996
891,23204192.732040008
2,1, 7,21, 0,20,10.00,20.00,SummerDesignDay
8,16.018070242471564
10,168205807.37531594
891,20658212.33812485
2,1, 7,21, 0,20,20.00,30.00,SummerDesignDay
8,15.938779752340516
10,166479648.44119276
891,15411886.54894354
2,1, 7,21, 0,20,30.00,40.00,SummerDesignDay
8,15.85926152575189
10,165019395.56663285
891,15163208.937570999
2,1, 7,21, 0,20,40.00,50.00,SummerDesignDay
8,15.779503718563929
10,163064523.88085307
891,19139346.28909045
2,1, 7,21, 0,20,50.00,60.00,SummerDesignDay
8,15.699515709672767
10,161289837.34279628
891,23175114.296476176
2,1, 7,21, 0,20, 0.00,60.00,SummerDesignDay
1125,28.954632552200925
1165,23.99988581926105
1205,27.243635774216107
1245,30.614463491960323
1285,23.999843637756898
1325,23.999947619749468
1365,23.999801518908315
1405,24.77856853059231
1445,24.521322949754226
1485,24.33868794219393
1525,27.905425275139736
1565,23.999352385394848
1605,24.710317245363357
1645,25.233333529254776
1685,23.999084505501235
1725,24.923385273005797
1765,25.148900770433035
1805,23.99996114596675
1845,25.051345229952856
1885,23.99983491199691
2,1, 7,21, 0,21, 0.00,10.00,SummerDesignDay
8,15.63389147320404
10,159522888.13274057
891,25911462.359978167
2,1, 7,21, 0,21,10.00,20.00,SummerDesignDay
8,15.56810827419793
10,157597682.7598126
891,26263966.04666755
2,1, 7,21, 0,21,20.00,30.00,SummerDesignDay
8,15.502170882753524
10,155662362.81626333
891,26270404.391995189
2,1, 7,21, 0,21,30.00,40.00,SummerDesignDay
8,15.436068032613852
10,153773488.82938607
891,26276489.197635227
2,1, 7,21, 0,21,40.00,50.00,SummerDesignDay
8,15.369804371206009
10,152106578.75322015
891,26282570.05390941
2,1, 7,21, 0,21,50.00,60.00,SummerDesignDay
8,15.303384603594449
10,150415626.75994695
891,26288653.07695214
2,1, 7,21, 0,21, 0.00,60.00,SummerDesignDay
1125,28.21153698897589
1165,23.99993677421986
1205,26.62666578124104
1245,29.19552767246903
1285,23.999897181520806
1325,23.999961917220078
1365,23.999825344430524
1405,24.987171893600345
1445,24.560490490232345
1485,24.247480868273884
1525,27.31827307813069
1565,23.99920600497693
1605,24.879276004593096
1645,25.679388124060819
1685,23.998854573658137
1725,24.90459473911268
1765,25.534082407241454
1805,23.999962398243086
1845,25.289599904928296
1885,23.999872425950245
2,1, 7,21, 0,22, 0.00,10.00,SummerDesignDay
8,15.236797685071274
10,102609892.7973185
891,20944361.044030429
2,1, 7,21, 0,22,10.00,20.00,SummerDesignDay
8,15.170047891787942
10,102171653.44256129
891,21722058.157980138
2,1, 7,21, 0,22,20.00,30.00,SummerDesignDay
8,15.103134826860483
10,101295135.82862525
891,21215485.921103296
2,1, 7,21, 0,22,30.00,40.00,SummerDesignDay
8,15.036063385178485