Program Version,EnergyPlus, Version 8.9.0-eba93e8e1b, YMD=2019.03.08 20:30
1,5,Environment Title[],Latitude[deg],Longitude[deg],Time Zone[],Elevation[m]
2,8,Day of Simulation[],Month[],Day of Month[],DST Indicator[1=yes 0=no],Hour[],StartMinute[],EndMinute[],DayType
3,5,Cumulative Day of Simulation[],Month[],Day of Month[],DST Indicator[1=yes 0=no],DayType  ! When Daily Report Variables Requested
4,2,Cumulative Days of Simulation[],Month[]  ! When Monthly Report Variables Requested
5,1,Cumulative Days of Simulation[] ! When Run Period Report Variables Requested
6,1,Calendar Year of Simulation[] ! When Annual Report Variables Requested
7,9,Environment,Site Outdoor Air Drybulb Temperature [C] !Monthly [Value,Min,Day,Hour,Minute,Max,Day,Hour,Minute]
8,1,Environment,Site Outdoor Air Wetbulb Temperature [C] !TimeStep
1086,1,ALL_ST=MFG - DETAILED_FL=STORY 4_SCH=A,Zone Air Temperature [C] !Hourly
1087,7,ALL_ST=MFG - DETAILED_FL=STORY 4_SCH=A,Zone Air Relative Humidity [%] !Daily [Value,Min,Hour,Minute,Max,Hour,Minute]
1126,1,ALL_ST=MFG - EQUIPMENT_FL=STORY 4_SCH=A,Zone Air Temperature [C] !Hourly
1127,7,ALL_ST=MFG - EQUIPMENT_FL=STORY 4_SCH=A,Zone Air Relative Humidity [%] !Daily [Value,Min,Hour,Minute,Max,Hour,Minute]
1166,1,ALL_ST=MUSEUM - EXHIBITION_FL=STORY 4_SCH=C,Zone Air Temperature [C] !Hourly
1167,7,ALL_ST=MUSEUM - EXHIBITION_FL=STORY 4_SCH=C,Zone Air Relative Humidity [%] !Daily [Value,Min,Hour,Minute,Max,Hour,Minute]
1206,1,ALL_ST=MUSEUM - RESTORATION_FL=STORY 4_SCH=A,Zone Air Temperature [C] !Hourly
1207,7,ALL_ST=MUSEUM - RESTORATION_FL=STORY 4_SCH=A,Zone Air Relative Humidity [%] !Daily [Value,Min,Hour,Minute,Max,Hour,Minute]
1246,1,ALL_ST=OFFICE - ENCLOSED - OCCSENS_FL=STORY 3_SCH=A,Zone Air Temperature [C] !Hourly
1247,7,ALL_ST=OFFICE - ENCLOSED - OCCSENS_FL=STORY 3_SCH=A,Zone Air Relative Humidity [%] !Daily [Value,Min,Hour,Minute,Max,Hour,Minute]
1286,1,ALL_ST=OFFICE - ENCLOSED_FL=STORY 4_SCH=A,Zone Air Temperature [C] !Hourly
1287,7,ALL_ST=OFFICE - ENCLOSED_FL=STORY 4_SCH=A,Zone Air Relative Humidity [%] !Daily [Value,Min,Hour,Minute,Max,Hour,Minute]
1326,1,ALL_ST=OFFICE - OPEN PLAN_FL=STORY 3_SCH=A,Zone Air Temperature [C] !Hourly
1327,7,ALL_ST=OFFICE - OPEN PLAN_FL=STORY 3_SCH=A,Zone Air Relative Humidity [%] !Daily [Value,Min,Hour,Minute,Max,Hour,Minute]
1366,1,ALL_ST=PARKING GARAGE SPACE_FL=STORY 3_SCH=H,Zone Air Temperature [C] !Hourly
1367,7,ALL_ST=PARKING GARAGE SPACE_FL=STORY 3_SCH=H,Zone Air Relative Humidity [%] !Daily [Value,Min,Hour,Minute,Max,Hour,Minute]
1406,1,ALL_ST=PENITENTIARY - AUDIENCE_FL=STORY 3_SCH=C,Zone Air Temperature [C] !Hourly
1407,7,ALL_ST=PENITENTIARY - AUDIENCE_FL=STORY 3_SCH=C,Zone Air Relative Humidity [%] !Daily [Value,Min,Hour,Minute,Max,Hour,Minute]
1446,1,ALL_ST=PENITENTIARY - CLASSROOM_FL=STORY 1_SCH=D,Zone Air Temperature [C] !Hourly
1447,7,ALL_ST=PENITENTIARY - CLASSROOM_FL=STORY 1_SCH=D,Zone Air Relative Humidity [%] !Daily [Value,Min,Hour,Minute,Max,Hour,Minute]
1486,1,ALL_ST=PENITENTIARY - DINING_FL=STORY 2_SCH=B,Zone Air Temperature [C] !Hourly
1487,7,ALL_ST=PENITENTIARY - DINING_FL=STORY 2_SCH=B,Zone Air Relative Humidity [%] !Daily [Value,Min,Hour,Minute,Max,Hour,Minute]
1526,1,ALL_ST=POST OFFICE SORTING_FL=STORY 2_SCH=A,Zone Air Temperature [C] !Hourly
1527,7,ALL_ST=POST OFFICE SORTING_FL=STORY 2_SCH=A,Zone Air Relative Humidity [%] !Daily [Value,Min,Hour,Minute,Max,Hour,Minute]
1566,1,ALL_ST=RELIGIOUS - AUDIENCE_FL=STORY 1_SCH=I,Zone Air Temperature [C] !Hourly
1567,7,ALL_ST=RELIGIOUS - AUDIENCE_FL=STORY 1_SCH=I,Zone Air Relative Humidity [%] !Daily [Value,Min,Hour,Minute,Max,Hour,Minute]
1606,1,ALL_ST=RELIGIOUS - FELLOWSHIP HALL_FL=STORY 1_SCH=C,Zone Air Temperature [C] !Hourly
1607,7,ALL_ST=RELIGIOUS - FELLOWSHIP HALL_FL=STORY 1_SCH=C,Zone Air Relative Humidity [%] !Daily [Value,Min,Hour,Minute,Max,Hour,Minute]
1646,1,ALL_ST=RELIGIOUS - PULPIT/CHOIR_FL=STORY 1_SCH=I,Zone Air Temperature [C] !Hourly
1647,7,ALL_ST=RELIGIOUS - PULPIT/CHOIR_FL=STORY 1_SCH=I,Zone Air Relative Humidity [%] !Daily [Value,Min,Hour,Minute,Max,Hour,Minute]
1686,1,ALL_ST=RETAIL - DRESSING/FITTING_FL=STORY 1_SCH=C,Zone Air Temperature [C] !Hourly
1687,7,ALL_ST=RETAIL - DRESSING/FITTING_FL=STORY 1_SCH=C,Zone Air Relative Humidity [%] !Daily [Value,Min,Hour,Minute,Max,Hour,Minute]
1726,1,ALL_ST=RETAIL - MALL CONCOURSE_FL=STORY 2_SCH=C,Zone Air Temperature [C] !Hourly
1727,7,ALL_ST=RETAIL - MALL CONCOURSE_FL=STORY 2_SCH=C,Zone Air Relative Humidity [%] !Daily [Value,Min,Hour,Minute,Max,Hour,Minute]
1766,1,ALL_ST=RETAIL - SALES_FL=STORY 2_SCH=C,Zone Air Temperature [C] !Hourly
1767,7,ALL_ST=RETAIL - SALES_FL=STORY 2_SCH=C,Zone Air Relative Humidity [%] !Daily [Value,Min,Hour,Minute,Max,Hour,Minute]
1806,1,ALL_ST=SALES AREA_FL=STORY 3_SCH=C,Zone Air Temperature [C] !Hourly
1807,7,ALL_ST=SALES AREA_FL=STORY 3_SCH=C,Zone Air Relative Humidity [%] !Daily [Value,Min,Hour,Minute,Max,Hour,Minute]
1846,1,ALL_ST=SPORTS ARENA - AUDIENCE_FL=STORY 2_SCH=B,Zone Air Temperature [C] !Hourly
1847,7,ALL_ST=SPORTS ARENA - AUDIENCE_FL=STORY 2_SCH=B,Zone Air Relative Humidity [%] !Daily [Value,Min,Hour,Minute,Max,Hour,Minute]
10,1,Electricity:Facility [J] !TimeStep
852,1,Gas:Facility [J] !TimeStep
End of Data Dictionary
1,FORT MCMURRAY AP ANN CLG .4% CONDNS DB=>MWB,  56.65,-111.22,  -7.00, 369.10
2,1, 7,21, 0, 1, 0.00,10.00,SummerDesignDay
8,14.218136923962174
10,129362622.68044618
852,5378403.441660069
2,1, 7,21, 0, 1,10.00,20.00,SummerDesignDay
8,14.171982153293495
10,129361943.91072509
852,35099006.4718296
2,1, 7,21, 0, 1,20.00,30.00,SummerDesignDay
8,14.125744780286427
10,129363878.76454762
852,35235765.81482035
2,1, 7,21, 0, 1,30.00,40.00,SummerDesignDay
8,14.079436086331978
10,129364060.7397823
852,35240645.28471012
2,1, 7,21, 0, 1,40.00,50.00,SummerDesignDay
8,14.033050387896898
10,129364063.87841767
852,35350421.0759214
2,1, 7,21, 0, 1,50.00,60.00,SummerDesignDay
8,13.986581233564835
10,129363998.18227214
852,35471635.40869359
2,1, 7,21, 0, 1, 0.00,60.00,SummerDesignDay
1086,22.218616376854106
1126,23.167278753901316
1166,21.007164122792799
1206,22.25926965188661
1246,23.447981513066624
1286,20.897245886523409
1326,23.731488703055559
1366,22.533624189766738
1406,22.696316684849405
1446,21.975320030381594
1486,22.829618729345019
1526,23.676567289456516
1566,22.544840631825989
1606,21.249049173766836
1646,22.60671646341633
1686,22.50451717554027
1726,23.62762287799346
1766,23.3856651984084
1806,23.57479129790606
1846,22.000611338598458
2,1, 7,21, 0, 2, 0.00,10.00,SummerDesignDay
8,13.95555882260429
10,102551636.61392099
852,40228597.671655949
2,1, 7,21, 0, 2,10.00,20.00,SummerDesignDay
8,13.924507755336454
10,102549053.92011827
852,12652083.851726558
2,1, 7,21, 0, 2,20.00,30.00,SummerDesignDay
8,13.893416042989206
10,102551101.21251649
852,41380277.75274524
2,1, 7,21, 0, 2,30.00,40.00,SummerDesignDay
8,13.862289589689029
10,102551308.03294382
852,41397509.10870471
2,1, 7,21, 0, 2,40.00,50.00,SummerDesignDay
8,13.831134407608739
10,102551343.74291367
852,43704451.132735449
2,1, 7,21, 0, 2,50.00,60.00,SummerDesignDay
8,13.799938415548118
10,102551309.33304119
852,15070144.94860009
2,1, 7,21, 0, 2, 0.00,60.00,SummerDesignDay
1086,21.77126978672113
1126,22.694772449663778
1166,20.466536664405717
1206,21.76014878978395
1246,23.314222997619284
1286,20.61388085344498
1326,23.55685450078252
1366,22.138146921837366
1406,22.319941024581757
1446,21.569096979432236
1486,22.152514647267777
1526,23.573550625099057
1566,21.50591075683073
1606,20.842047236106425
1646,21.56486485776017
1686,22.409879508900987
1726,23.476596440584573
1766,23.2533088765893
1806,23.339849329447234
1846,22.001676209282676
2,1, 7,21, 0, 3, 0.00,10.00,SummerDesignDay
8,13.776521671948676
10,90041204.48093519
852,27944632.722476536
2,1, 7,21, 0, 3,10.00,20.00,SummerDesignDay
8,13.753085235778466
10,90038929.8206448
852,12000.0
2,1, 7,21, 0, 3,20.00,30.00,SummerDesignDay
8,13.729636002354969
10,90042149.27505166
852,12000.0
2,1, 7,21, 0, 3,30.00,40.00,SummerDesignDay
8,13.706147375533054
10,90046260.60275969
852,12000.0
2,1, 7,21, 0, 3,40.00,50.00,SummerDesignDay
8,13.682651961920304
10,90046789.57013685
852,27569846.17113376
2,1, 7,21, 0, 3,50.00,60.00,SummerDesignDay
8,13.659136670643687
10,90046936.01874587
852,12000.0
2,1, 7,21, 0, 3, 0.00,60.00,SummerDesignDay
1086,21.414341719091046
1126,22.308733197605294
1166,20.040557372823377
1206,21.353116856399298
1246,23.175608683964787
1286,20.36671723407186
1326,23.383669497598036
1366,21.80518431255904
1406,22.006948846672406
1446,21.24861202885094
1486,21.405028739690434
1526,23.440268731425843
1566,20.983585171354976
1606,20.526006347425633
1646,21.04685140779949
1686,22.31140316169031
1726,23.318539969924996
1766,23.109606285487307
1806,23.111606733374246
1846,20.58454772088701
2,1, 7,21, 0, 4, 0.00,10.00,SummerDesignDay
8,13.63560137410855
10,90046944.44525412
852,12000.0
2,1, 7,21, 0, 4,10.00,20.00,SummerDesignDay
8,13.612040802606578
10,90046914.27965218
852,454489.6052271928
2,1, 7,21, 0, 4,20.00,30.00,SummerDesignDay
8,13.58846620506876
10,89981700.30434907
852,27076668.884758574
2,1, 7,21, 0, 4,30.00,40.00,SummerDesignDay
8,13.56487178447336
10,89790319.15120596
852,12000.0
2,1, 7,21, 0, 4,40.00,50.00,SummerDesignDay
8,13.541257354069103
10,89598854.11087966
852,12000.0
2,1, 7,21, 0, 4,50.00,60.00,SummerDesignDay
8,13.517617463812285
10,89407412.69492963
852,27708728.1573988
2,1, 7,21, 0, 4, 0.00,60.00,SummerDesignDay
1086,21.080955934958387
1126,21.957231332613224
1166,19.667655793548929
1206,20.992128283715624
1246,23.002806075113396
1286,20.117829829302058
1326,23.189503734788067
1366,21.46735111005934
1406,21.695494251997233
1446,20.946796533567363
1486,20.92473758944328
1526,23.26695709157035
1566,20.63704578515923
1606,20.231922495026386
1646,20.71412698553518
1686,22.198276595476384
1726,23.129927440871375
1766,22.93209582619336
1806,22.86406037369747
1846,19.964669997962987
2,1, 7,21, 0, 5, 0.00,10.00,SummerDesignDay
8,13.50185415824011
10,89269395.34257975
852,12000.0
2,1, 7,21, 0, 5,10.00,20.00,SummerDesignDay
8,13.486076034032447
10,89137645.51768309
852,12000.0
2,1, 7,21, 0, 5,20.00,30.00,SummerDesignDay
8,13.470289340350983
10,89010343.17763132
852,12000.0
2,1, 7,21, 0, 5,30.00,40.00,SummerDesignDay
8,13.454493322631063
10,88887626.78171838
852,27700285.21857393
2,1, 7,21, 0, 5,40.00,50.00,SummerDesignDay
8,13.438688835118548
10,88767511.23297721
852,12000.0
2,1, 7,21, 0, 5,50.00,60.00,SummerDesignDay
8,13.422888173889437
10,88648770.59914741
852,12000.0
2,1, 7,21, 0, 5, 0.00,60.00,SummerDesignDay
1086,20.84207104632187
1126,21.704594493520547
1166,19.521541254759315
1206,20.80993745922876
1246,22.832039258373617
1286,19.96539909871721
1326,23.015495075894248
1366,21.26055652483844
1406,21.479553581266729
1446,20.68947586546869
1486,20.71085941715863
1526,23.113128331641339
1566,20.34204925678451
1606,19.982641722600918
1646,20.436370672017529
1686,22.087860759775663
1726,22.961778051358527
1766,22.836543347885244
1806,22.64602579249845
1846,19.838838048509627
2,1, 7,21, 0, 6, 0.00,10.00,SummerDesignDay
8,13.438688835118548
10,88744465.2127096
852,12000.0
2,1, 7,21, 0, 6,10.00,20.00,SummerDesignDay
8,13.454493322631063
10,88866410.09134457
852,27683804.73068294
2,1, 7,21, 0, 6,20.00,30.00,SummerDesignDay
8,13.470289340350983
10,88990782.44092262
852,12000.0
2,1, 7,21, 0, 6,30.00,40.00,SummerDesignDay
8,13.486076034032447
10,89117136.02179599
852,12000.0
2,1, 7,21, 0, 6,40.00,50.00,SummerDesignDay
8,13.50185415824011
10,89245183.08879474
852,12000.0
2,1, 7,21, 0, 6,50.00,60.00,SummerDesignDay
8,13.517617463812285
10,89374644.2562486
852,27655742.879580156
2,1, 7,21, 0, 6, 0.00,60.00,SummerDesignDay
1086,20.874467784198797
1126,21.741355118559175
1166,20.097543411926499
1206,21.01121852706041
1246,22.671739058386476
1286,20.048725584944227
1326,22.872148939434174
1366,21.463073712010105
1406,21.41950754746001
1446,20.562099780377396
1486,20.884915197452487
1526,22.987974780852175
1566,20.200661486279377
1606,19.881591188898008
1646,20.304563420047189
1686,21.978259544588029
1726,22.81984044682433
1766,22.818323650192867
1806,22.46105670870575
1846,19.737312850041528
2,1, 7,21, 0, 7, 0.00,10.00,SummerDesignDay
8,13.572736920571789
10,89772051.69112581
852,12000.0
2,1, 7,21, 0, 7,10.00,20.00,SummerDesignDay
8,13.627748229152554
10,90045832.22032336
852,12000.0
2,1, 7,21, 0, 7,20.00,30.00,SummerDesignDay
8,13.682651961920304
10,90046566.84881905
852,12000.0
2,1, 7,21, 0, 7,30.00,40.00,SummerDesignDay
8,13.737448093244995
10,90046876.86259914
852,27609672.377221936
2,1, 7,21, 0, 7,40.00,50.00,SummerDesignDay
8,13.792137011831216
10,90047042.20154006
852,12000.0
2,1, 7,21, 0, 7,50.00,60.00,SummerDesignDay
8,13.846719282840333
10,90047166.73800752
852,12000.0
2,1, 7,21, 0, 7, 0.00,60.00,SummerDesignDay
1086,21.278371903317674
1126,22.152220252915869
1166,21.080920987898876
1206,21.330209446553199
1246,22.53074535632075
1286,20.342458731559618
1326,22.760349385771538
1366,21.915278638853306
1406,21.46335280980308
1446,20.692565115580775
1486,21.31498451550638
1526,22.881175009780667
1566,20.361718602382124
1606,20.067186182267105
1646,20.456301038902816
1686,21.874342437660276
1726,22.691441448143356
1766,22.652531713985146
1806,22.30606272426311
1846,19.642975313627024
2,1, 7,21, 0, 8, 0.00,10.00,SummerDesignDay
8,13.978831900527043
10,124130574.84706453
852,66021118.38510377
2,1, 7,21, 0, 8,10.00,20.00,SummerDesignDay
8,14.110321014287419
10,122789959.84258527
852,9014301.379060064
2,1, 7,21, 0, 8,20.00,30.00,SummerDesignDay
8,14.241191509616986
10,121144018.65929374
852,12000.0
2,1, 7,21, 0, 8,30.00,40.00,SummerDesignDay
8,14.371447531304272
10,123101900.73653209
852,29824577.71071874
2,1, 7,21, 0, 8,40.00,50.00,SummerDesignDay
8,14.501093766564925
10,122072520.81897623
852,12000.0
2,1, 7,21, 0, 8,50.00,60.00,SummerDesignDay
8,14.630134792273804
10,123189137.4996058
852,12000.0
2,1, 7,21, 0, 8, 0.00,60.00,SummerDesignDay
1086,22.805318924049329
1126,23.458339028473359
1166,22.59050711311282
1206,22.728751382295358
1246,22.719956482292259
1286,22.064316599372537
1326,22.970389767568677
1366,22.665833496611545
1406,21.886606453834366
1446,21.242383821741226
1486,22.09936165902947
1526,23.067801517172275
1566,21.000786416112246
1606,20.712671684560957
1646,21.070826294046623
1686,21.789363085672578
1726,22.588342820894906
1766,22.544774433096014
1806,22.202762667822687
1846,19.557340044029706
2,1, 7,21, 0, 9, 0.00,10.00,SummerDesignDay
8,14.773641492809972
10,269058415.3386263
852,59126181.54237957
2,1, 7,21, 0, 9,10.00,20.00,SummerDesignDay
8,14.91640948124148
10,277768067.89083638
852,62696239.881403069
2,1, 7,21, 0, 9,20.00,30.00,SummerDesignDay
8,15.05843890714102
10,280116763.2335149
852,32264338.34349768
2,1, 7,21, 0, 9,30.00,40.00,SummerDesignDay
8,15.199735893563798
10,283968607.48498
852,31408191.456705758
2,1, 7,21, 0, 9,40.00,50.00,SummerDesignDay
8,15.340306256439395
10,289861450.25391998
852,31336048.47184227
2,1, 7,21, 0, 9,50.00,60.00,SummerDesignDay
8,15.48015101768072
10,291478782.84356459
852,38217064.80130663
2,1, 7,21, 0, 9, 0.00,60.00,SummerDesignDay
1086,23.976656674537904
1126,23.999544156759755
1166,23.835768733643318
1206,23.91985809174378
1246,23.764672205780525
1286,23.631497914889626
1326,23.87387167918206
1366,23.684524364600795
1406,23.086955882788023
1446,22.798884109122147
1486,23.25574838223179
1526,23.894551345659143
1566,22.14474014526426
1606,22.445944762781278
1646,22.183298513157966
1686,22.24051186761126
1726,22.931085511551215
1766,23.16432537207083
1806,22.79086889936842
1846,19.986720623283735
2,1, 7,21, 0,10, 0.00,10.00,SummerDesignDay
8,15.60467292907716
10,383322373.8976623
852,72665690.68353942
2,1, 7,21, 0,10,10.00,20.00,SummerDesignDay
8,15.72862731650033
10,392223211.70532247
852,82614237.59117952
2,1, 7,21, 0,10,20.00,30.00,SummerDesignDay
8,15.852017409284228
10,397732093.97298356
852,82019127.43863878
2,1, 7,21, 0,10,30.00,40.00,SummerDesignDay
8,15.974848118364367
10,404555676.46228268
852,82019060.24409835
2,1, 7,21, 0,10,40.00,50.00,SummerDesignDay
8,16.097123145563505
10,409854053.39511927
852,82017332.03205726
2,1, 7,21, 0,10,50.00,60.00,SummerDesignDay
8,16.218846351168599
10,414776613.13491168
852,82015664.44606787
2,1, 7,21, 0,10, 0.00,60.00,SummerDesignDay
1086,23.99942708735856
1126,23.99939523647565
1166,23.996996615509688
1206,24.014413181836134
1246,23.999685610479209
1286,23.999595728405038
1326,23.999641476708605
1366,23.999940676437558
1406,23.977405309830176
1446,23.978222846436478
1486,23.99309693689959
1526,23.999590270160298
1566,23.419671340666299
1606,23.690271913513219
1646,23.437029099423304
1686,22.826986229255778
1726,23.474047491245398
1766,23.90999501090945
1806,23.65514887972542
1846,21.29134785773515
2,1, 7,21, 0,11, 0.00,10.00,SummerDesignDay
8,16.325793027093189
10,427809115.23369958
852,117682394.01808395
2,1, 7,21, 0,11,10.00,20.00,SummerDesignDay
8,16.432322158488288
10,433297109.8063507
852,87126920.14194075
2,1, 7,21, 0,11,20.00,30.00,SummerDesignDay
8,16.538424180249178
10,437793239.71157756
852,119426322.71696979
2,1, 7,21, 0,11,30.00,40.00,SummerDesignDay
8,16.644108396469087
10,442478047.4301543
852,91417528.51951963
2,1, 7,21, 0,11,40.00,50.00,SummerDesignDay
8,16.749376736593655
10,446832847.5503462
852,112096900.80422268
2,1, 7,21, 0,11,50.00,60.00,SummerDesignDay
8,16.854232613237156
10,451217098.0859693
852,118839422.20523255
2,1, 7,21, 0,11, 0.00,60.00,SummerDesignDay
1086,23.99898330803178
1126,23.99891972003881
1166,24.18514960873806
1206,24.119304687853515
1246,23.999209096696906
1286,23.999010116156879
1326,23.999132011772077
1366,23.99998905513587
1406,23.999065088493326
1446,23.997749625689239
1486,23.99929835297532
1526,23.999015233301298
1566,24.879304096411415
1606,23.99947104529909
1646,24.886700920393776
1686,23.438802170321407
1726,23.94971513132417
1766,23.999866440192446
1806,23.99996581002122
1846,21.998426075035895
2,1, 7,21, 0,12, 0.00,10.00,SummerDesignDay
8,16.92390823520069
10,459661097.5852451
852,76834385.27021347
2,1, 7,21, 0,12,10.00,20.00,SummerDesignDay
8,16.99340178950456
10,462905841.6835793
852,110406839.9430317
2,1, 7,21, 0,12,20.00,30.00,SummerDesignDay
8,17.06272006743463
10,466184871.2498128
852,76143852.9644708
2,1, 7,21, 0,12,30.00,40.00,SummerDesignDay
8,17.131853229172639
10,469443918.5257397
852,110222718.65279828
2,1, 7,21, 0,12,40.00,50.00,SummerDesignDay
8,17.200807172194087
10,472649867.5130369
852,75837955.63058856
2,1, 7,21, 0,12,50.00,60.00,SummerDesignDay
8,17.269582116758607
10,475821523.0314337
852,109891093.06103452
2,1, 7,21, 0,12, 0.00,60.00,SummerDesignDay
1086,23.99886684015867
1126,23.99876003056829
1166,24.34572527864374
1206,24.199188987091586
1246,23.99882779288814
1286,23.998844269328499
1326,23.99875782713558
1366,24.000072063284155
1406,23.99863864828247
1446,23.997403797256714
1486,23.999239582789927
1526,23.998759165770136
1566,25.850420186907909
1606,23.99928716674147
1646,25.866540623117289
1686,23.69072027004263
1726,23.9996941402095
1766,23.999765826319856
1806,23.99978161364702
1846,22.00141014115951
2,1, 7,21, 0,13, 0.00,10.00,SummerDesignDay
8,17.32447360221357
10,478113036.0042855
852,113261198.74608304
2,1, 7,21, 0,13,10.00,20.00,SummerDesignDay
8,17.379251291230806
10,481195487.8413827
852,113225403.46058208
2,1, 7,21, 0,13,20.00,30.00,SummerDesignDay
8,17.433921312061729
10,483745896.4993645
852,113062898.12314041
2,1, 7,21, 0,13,30.00,40.00,SummerDesignDay
8,17.488473222557489
10,486424381.6973551
852,112939977.1535649
2,1, 7,21, 0,13,40.00,50.00,SummerDesignDay
8,17.542913447755134
10,489349846.9048994
852,112703625.49978301
2,1, 7,21, 0,13,50.00,60.00,SummerDesignDay
8,17.59724609886134
10,492099032.3200308
852,112677487.6692845
2,1, 7,21, 0,13, 0.00,60.00,SummerDesignDay
1086,23.99900433885517
1126,23.99887971493602
1166,24.4613176355432
1206,24.256857453757936
1246,23.99881796679411
1286,23.999024812466819
1326,23.99884549989875
1366,24.000022988205747
1406,23.9977169540648
1446,23.997459182244599
1486,23.998917299061075
1526,23.99885274211663
1566,26.509583576607669
1606,23.998663787107899
1646,26.552493139642807
1686,23.90119515959005
1726,23.99954409288038
1766,23.999664268465524
1806,23.99964325183146
1846,22.001170665209597
2,1, 7,21, 0,14, 0.00,10.00,SummerDesignDay
8,17.6311450462694
10,493980370.21446397
852,115459655.45949885
2,1, 7,21, 0,14,10.00,20.00,SummerDesignDay
8,17.665000449016245
10,495941147.44434198
852,115485166.0464954
2,1, 7,21, 0,14,20.00,30.00,SummerDesignDay
8,17.698812743128934
10,498900346.7900487
852,115360187.31656505
2,1, 7,21, 0,14,30.00,40.00,SummerDesignDay
8,17.732582050940107
10,500885204.1971461
852,115255563.97619485
2,1, 7,21, 0,14,40.00,50.00,SummerDesignDay
8,17.766307345121004
10,502917123.0280292
852,115149884.08325432
2,1, 7,21, 0,14,50.00,60.00,SummerDesignDay
8,17.79999023167558
10,505008362.7660635
852,114941343.41630908
2,1, 7,21, 0,14, 0.00,60.00,SummerDesignDay
1086,23.999226806711375
1126,23.999008485803306
1166,24.544189227952029
1206,24.297988717887674
1246,23.998847383714265
1286,23.99911313678273
1326,23.998975474588634
1366,23.99999659662686
1406,23.996860625143758
1446,23.99739981716893
1486,23.998622628970165
1526,23.998983149043356
1566,27.002131722888394
1606,23.99821228132227
1646,27.07838363257549
1686,23.99961246688544
1726,23.999391882291986
1766,23.99955893381782
1806,23.999511695447536
1846,22.001112904821686
2,1, 7,21, 0,15, 0.00,10.00,SummerDesignDay
8,17.79999023167558
10,540160797.2792857
852,116642037.85464376
2,1, 7,21, 0,15,10.00,20.00,SummerDesignDay
8,17.79999023167558
10,533440290.85369446
852,116749477.88606726
2,1, 7,21, 0,15,20.00,30.00,SummerDesignDay
8,17.79999023167558
10,528712408.93760749
852,116685139.63842058
2,1, 7,21, 0,15,30.00,40.00,SummerDesignDay
8,17.79999023167558
10,530170740.13482078
852,116553276.874377
2,1, 7,21, 0,15,40.00,50.00,SummerDesignDay
8,17.79999023167558
10,530650912.82545956
852,116419373.08022286
2,1, 7,21, 0,15,50.00,60.00,SummerDesignDay
8,17.79999023167558
10,531229101.1473564
852,116410426.18806008
2,1, 7,21, 0,15, 0.00,60.00,SummerDesignDay
1086,23.99930690360566
1126,23.99920178560558
1166,24.542515608293248
1206,24.251080910050548
1246,23.999027750649579
1286,23.999147360693173
1326,23.999149346295395
1366,23.99999537809636
1406,23.997479432919424
1446,23.998046979804927
1486,23.99916441680503
1526,23.99919105066131
1566,24.14542298727606
1606,23.99866448739982
1646,24.157417568107019
1686,23.999690418276385
1726,23.99944308007812
1766,23.99963751707772
1806,23.999558757317545
1846,22.001311350884845
2,1, 7,21, 0,16, 0.00,10.00,SummerDesignDay
8,17.759562446305357
10,550984439.884853
852,120485998.32473734
2,1, 7,21, 0,16,10.00,20.00,SummerDesignDay
8,17.71907809634183
10,549885846.6964038
852,121355686.39686032
2,1, 7,21, 0,16,20.00,30.00,SummerDesignDay
8,17.67853788661001
10,548406527.0691283
852,121260353.64513335
2,1, 7,21, 0,16,30.00,40.00,SummerDesignDay
8,17.63791796367351
10,546717017.1105067
852,121240745.98995826
2,1, 7,21, 0,16,40.00,50.00,SummerDesignDay
8,17.59724609886134
10,544862800.7866902
852,121026137.14434088
2,1, 7,21, 0,16,50.00,60.00,SummerDesignDay
8,17.55650676726033
10,542850759.0789994
852,120998416.13515356
2,1, 7,21, 0,16, 0.00,60.00,SummerDesignDay
1086,23.998877227473387
1126,23.998864840430178
1166,24.537050853396427
1206,24.294131843074696
1246,23.99864577419275
1286,23.998829772107859
1326,23.998803056700685
1366,23.999993302655058
1406,23.99647142563977
1446,23.99727307178136
1486,23.99925273910178
1526,23.998847852621439
1566,23.999940142646499
1606,23.99812194170852
1646,23.99993397616503
1686,23.999531339803644
1726,23.999226263350669
1766,23.999502512711748
1806,23.999425157680123
1846,22.001929853275056
2,1, 7,21, 0,17, 0.00,10.00,SummerDesignDay
8,17.50209486331892
10,535858204.589122
852,87575779.51998689
2,1, 7,21, 0,17,10.00,20.00,SummerDesignDay
8,17.447570789624618
10,531713617.32375678
852,104187809.0290741
2,1, 7,21, 0,17,20.00,30.00,SummerDesignDay
8,17.392929544208135
10,528937327.8422053
852,78632649.4033432
2,1, 7,21, 0,17,30.00,40.00,SummerDesignDay
8,17.33818013976614
10,525914512.3021007
852,112406283.16828713
2,1, 7,21, 0,17,40.00,50.00,SummerDesignDay
8,17.283317298559309
10,523256497.7463653
852,78312501.09087524
2,1, 7,21, 0,17,50.00,60.00,SummerDesignDay
8,17.22833552437677
10,520518772.6670792
852,112232987.41495769
2,1, 7,21, 0,17, 0.00,60.00,SummerDesignDay
1086,23.998894820608727
1126,23.998980783375655
1166,24.448171057384813
1206,24.250113388495739
1246,23.99868195215343
1286,23.999004136501566
1326,23.998834617301289
1366,24.000017499116763
1406,23.996118465496719
1446,23.998146075164596
1486,23.99957956552284
1526,23.9988454865851
1566,23.99994221762037
1606,23.9979922069159
1646,23.999929335812209
1686,23.99947209743114
1726,23.99925051239673
1766,23.999490646468549
1806,23.999463652049149
1846,22.00166562051396
2,1, 7,21, 0,18, 0.00,10.00,SummerDesignDay
8,17.159453019160176
10,496152269.5113261
852,71957675.67883787
2,1, 7,21, 0,18,10.00,20.00,SummerDesignDay
8,17.090391773337136
10,491304186.98734179
852,47615293.82938731
2,1, 7,21, 0,18,20.00,30.00,SummerDesignDay
8,17.021151077964786
10,487623994.4742686
852,63047018.8417431
2,1, 7,21, 0,18,30.00,40.00,SummerDesignDay
8,16.951729380464653
10,483985320.54553708
852,70985397.70700446
2,1, 7,21, 0,18,40.00,50.00,SummerDesignDay
8,16.882126503829249
10,480343256.9861643
852,70795223.2517719
2,1, 7,21, 0,18,50.00,60.00,SummerDesignDay
8,16.812341807494034
10,476696449.3822899
852,70774857.99472112
2,1, 7,21, 0,18, 0.00,60.00,SummerDesignDay
1086,23.99922554370688
1126,23.999256205023476
1166,24.332664756902635
1206,24.1928456799828
1246,23.998918495831146
1286,23.99930789529708
1326,23.99905264927007
1366,23.99998750573253
1406,23.99636554196681
1446,23.99912233534089
1486,23.999502190235288
1526,23.999011010519124
1566,23.999906421716689
1606,23.998231796613699
1646,23.999891104874039
1686,23.999482359123989
1726,23.999329985900599
1766,23.999519196344907
1806,23.999559446670245
1846,22.00075973118689
2,1, 7,21, 0,19, 0.00,10.00,SummerDesignDay
8,16.707321072823203
10,421152621.8872735
852,60204064.19491246
2,1, 7,21, 0,19,10.00,20.00,SummerDesignDay
8,16.601881826644556
10,414753580.42905518
852,35229050.16045972
2,1, 7,21, 0,19,20.00,30.00,SummerDesignDay
8,16.496030555252849
10,409627458.4035907
852,62555691.882763329
2,1, 7,21, 0,19,30.00,40.00,SummerDesignDay
8,16.389760181474104
10,404555576.17389169
852,62408769.24833969
2,1, 7,21, 0,19,40.00,50.00,SummerDesignDay
8,16.283067654262039
10,399585701.8369355
852,31289957.613863265
2,1, 7,21, 0,19,50.00,60.00,SummerDesignDay
8,16.17595057957811
10,394645436.57420137
852,62266022.57625012
2,1, 7,21, 0,19, 0.00,60.00,SummerDesignDay
1086,23.999658033778944
1126,23.999673496634075
1166,24.16667746034823
1206,24.110763364683267
1246,23.99940533668244
1286,23.999754831964905
1326,23.999486681277685
1366,23.9999617604048
1406,23.9973205562863
1446,23.999509836812654
1486,23.99921158288879
1526,23.999386039399146
1566,23.999420337560154
1606,23.998843208885178
1646,23.999386614775685
1686,23.99953639578571
1726,23.999480496093754
1766,23.99959725309921
1806,23.99976477662139
1846,22.000689523029775
2,1, 7,21, 0,20, 0.00,10.00,SummerDesignDay
8,16.097123145563505
10,324536168.5000758
852,54595589.5137786
2,1, 7,21, 0,20,10.00,20.00,SummerDesignDay
8,16.018070242471564
10,319834783.36078748
852,37871536.16475903
2,1, 7,21, 0,20,20.00,30.00,SummerDesignDay
8,15.938779752340516
10,315901660.2129326
852,61626857.399546358
2,1, 7,21, 0,20,30.00,40.00,SummerDesignDay
8,15.85926152575189
10,311977916.66517439
852,30819806.83961689
2,1, 7,21, 0,20,40.00,50.00,SummerDesignDay
8,15.779503718563929
10,308037224.03166779
852,61616204.76658683
2,1, 7,21, 0,20,50.00,60.00,SummerDesignDay
8,15.699515709672767
10,304114071.2224153
852,61641427.64343494
2,1, 7,21, 0,20, 0.00,60.00,SummerDesignDay
1086,23.999893404866716
1126,23.99988930607749
1166,23.994925448216006
1206,24.02445265980945
1246,23.999627125202144
1286,23.99982659887843
1326,23.99967945613706
1366,23.9999910710755
1406,23.998495586468427
1446,23.999182471439995
1486,23.998739612734778
1526,23.999627667203027
1566,23.9981855630443
1606,23.99946225810398
1646,23.998118087107235
1686,23.806255606327388
1726,23.999668810692304
1766,23.999737828573048
1806,23.999796853587588
1846,22.143175088475848
2,1, 7,21, 0,21, 0.00,10.00,SummerDesignDay
8,15.63389147320404
10,289075395.3228908
852,44588348.748240027
2,1, 7,21, 0,21,10.00,20.00,SummerDesignDay
8,15.56810827419793
10,286167537.19204846
852,50162065.56826546
2,1, 7,21, 0,21,20.00,30.00,SummerDesignDay
8,15.502170882753524
10,283063954.6870603
852,63250994.483353968
2,1, 7,21, 0,21,30.00,40.00,SummerDesignDay
8,15.436068032613852
10,279806123.2347259
852,63249000.20394525
2,1, 7,21, 0,21,40.00,50.00,SummerDesignDay
8,15.369804371206009
10,277041960.9592077
852,63248223.97101664
2,1, 7,21, 0,21,50.00,60.00,SummerDesignDay
8,15.303384603594449
10,273703823.9199202
852,63247367.006013359
2,1, 7,21, 0,21, 0.00,60.00,SummerDesignDay
1086,23.999961110576679
1126,23.999947302481205
1166,23.858078671138988
1206,23.955718719660188
1246,23.99968032530866
1286,23.606791853547994
1326,23.999734566236044
1366,24.000015833784408
1406,23.999010435677279
1446,23.999078094626325
1486,23.99836846951507
1526,23.99972459290733
1566,23.997596024167384
1606,23.987887125634275
1646,23.99751679500964
1686,23.614427132739676
1726,23.999764489405825
1766,23.999803874945447
1806,23.999798895581678
1846,22.23438632476628
2,1, 7,21, 0,22, 0.00,10.00,SummerDesignDay
8,15.236797685071274
10,178242629.63326995
852,38519644.409183438
2,1, 7,21, 0,22,10.00,20.00,SummerDesignDay
8,15.170047891787942
10,176890079.46879945
852,53812683.82269954
2,1, 7,21, 0,22,20.00,30.00,SummerDesignDay
8,15.103134826860483
10,175486836.35194785
852,61458568.735361348
2,1, 7,21, 0,22,30.00,40.00,SummerDesignDay
8,15.036063385178485
10,174290916.80941267
852,30710758.43536049