Program Version,EnergyPlus, Version 8.9.0-eba93e8e1b, YMD=2019.03.21 16:06
1,5,Environment Title[],Latitude[deg],Longitude[deg],Time Zone[],Elevation[m]
2,8,Day of Simulation[],Month[],Day of Month[],DST Indicator[1=yes 0=no],Hour[],StartMinute[],EndMinute[],DayType
3,5,Cumulative Day of Simulation[],Month[],Day of Month[],DST Indicator[1=yes 0=no],DayType  ! When Daily Report Variables Requested
4,2,Cumulative Days of Simulation[],Month[]  ! When Monthly Report Variables Requested
5,1,Cumulative Days of Simulation[] ! When Run Period Report Variables Requested
6,1,Calendar Year of Simulation[] ! When Annual Report Variables Requested
7,9,Environment,Site Outdoor Air Drybulb Temperature [C] !Monthly [Value,Min,Day,Hour,Minute,Max,Day,Hour,Minute]
8,1,Environment,Site Outdoor Air Wetbulb Temperature [C] !TimeStep
555,1,SP-SPORTS ARENA PLAYING AREA CLASS I FACILITY(4)-SPACE FUNCTION SYS-3 FLR-1 SCH-B HPLCMT-CORE ZN,Zone Air Temperature [C] !Hourly
556,7,SP-SPORTS ARENA PLAYING AREA CLASS I FACILITY(4)-SPACE FUNCTION SYS-3 FLR-1 SCH-B HPLCMT-CORE ZN,Zone Air Relative Humidity [%] !Daily [Value,Min,Hour,Minute,Max,Hour,Minute]
595,1,SP-SPORTS ARENA PLAYING AREA CLASS II FACILITY(4)-SPACE FUNCTION SYS-3 FLR-1 SCH-B HPLCMT-SOUTH ZN,Zone Air Temperature [C] !Hourly
596,7,SP-SPORTS ARENA PLAYING AREA CLASS II FACILITY(4)-SPACE FUNCTION SYS-3 FLR-1 SCH-B HPLCMT-SOUTH ZN,Zone Air Relative Humidity [%] !Daily [Value,Min,Hour,Minute,Max,Hour,Minute]
635,1,SP-SPORTS ARENA PLAYING AREA CLASS III FACILITY(4)-SPACE FUNCTION SYS-3 FLR-1 SCH-B HPLCMT-EAST ZN,Zone Air Temperature [C] !Hourly
636,7,SP-SPORTS ARENA PLAYING AREA CLASS III FACILITY(4)-SPACE FUNCTION SYS-3 FLR-1 SCH-B HPLCMT-EAST ZN,Zone Air Relative Humidity [%] !Daily [Value,Min,Hour,Minute,Max,Hour,Minute]
675,1,SP-TRANSPORTATION FACILITY BAGGAGE/CAROUSEL AREA-SPACE FUNCTION SYS-3 FLR-1 SCH-H HPLCMT-NORTH ZN,Zone Air Temperature [C] !Hourly
676,7,SP-TRANSPORTATION FACILITY BAGGAGE/CAROUSEL AREA-SPACE FUNCTION SYS-3 FLR-1 SCH-H HPLCMT-NORTH ZN,Zone Air Relative Humidity [%] !Daily [Value,Min,Hour,Minute,Max,Hour,Minute]
715,1,SP-TRANSPORTATION FACILITY TERMINAL TICKET COUNTER-SPACE FUNCTION SYS-3 FLR-1 SCH-H HPLCMT-WEST ZN,Zone Air Temperature [C] !Hourly
716,7,SP-TRANSPORTATION FACILITY TERMINAL TICKET COUNTER-SPACE FUNCTION SYS-3 FLR-1 SCH-H HPLCMT-WEST ZN,Zone Air Relative Humidity [%] !Daily [Value,Min,Hour,Minute,Max,Hour,Minute]
10,1,Electricity:Facility [J] !TimeStep
321,1,Gas:Facility [J] !TimeStep
End of Data Dictionary
1,FORT MCMURRAY AP ANN CLG .4% CONDNS DB=>MWB,  56.65,-111.22,  -7.00, 369.10
2,1, 7,21, 0, 1, 0.00,10.00,SummerDesignDay
8,14.218136923962174
10,163754388.42924623
321,63295697.38501295
2,1, 7,21, 0, 1,10.00,20.00,SummerDesignDay
8,14.171982153293495
10,162158728.83213002
321,58710370.508356157
2,1, 7,21, 0, 1,20.00,30.00,SummerDesignDay
8,14.125744780286427
10,161743596.64131958
321,58626479.66972266
2,1, 7,21, 0, 1,30.00,40.00,SummerDesignDay
8,14.079436086331978
10,161310203.7343972
321,58536166.43638083
2,1, 7,21, 0, 1,40.00,50.00,SummerDesignDay
8,14.033050387896898
10,160888109.01925729
321,68011763.36323877
2,1, 7,21, 0, 1,50.00,60.00,SummerDesignDay
8,13.986581233564835
10,160482834.93768896
321,76369374.43485184
2,1, 7,21, 0, 1, 0.00,60.00,SummerDesignDay
555,23.995587776854199
595,23.99589626827074
635,23.996086548683
675,23.998271189884219
715,23.99574424421647
2,1, 7,21, 0, 2, 0.00,10.00,SummerDesignDay
8,13.95555882260429
10,88225303.16142468
321,71284262.88654739
2,1, 7,21, 0, 2,10.00,20.00,SummerDesignDay
8,13.924507755336454
10,88320991.34474278
321,70692068.11987092
2,1, 7,21, 0, 2,20.00,30.00,SummerDesignDay
8,13.893416042989206
10,87944882.60749527
321,70305307.89461628
2,1, 7,21, 0, 2,30.00,40.00,SummerDesignDay
8,13.862289589689029
10,87663993.4185293
321,55188176.75268227
2,1, 7,21, 0, 2,40.00,50.00,SummerDesignDay
8,13.831134407608739
10,87559164.38488969
321,40526753.422937218
2,1, 7,21, 0, 2,50.00,60.00,SummerDesignDay
8,13.799938415548118
10,87500403.89557792
321,44869340.14986859
2,1, 7,21, 0, 2, 0.00,60.00,SummerDesignDay
555,25.45042709733117
595,24.582526049851237
635,24.114501845848495
675,23.99873510500821
715,23.99679412671219
2,1, 7,21, 0, 3, 0.00,10.00,SummerDesignDay
8,13.776521671948676
10,40945695.30865954
321,55535999.16310921
2,1, 7,21, 0, 3,10.00,20.00,SummerDesignDay
8,13.753085235778466
10,40908054.36918804
321,784788.6861492103
2,1, 7,21, 0, 3,20.00,30.00,SummerDesignDay
8,13.729636002354969
10,40860080.9696496
321,26283456.098339
2,1, 7,21, 0, 3,30.00,40.00,SummerDesignDay
8,13.706147375533054
10,40529574.87821042
321,28716426.464077817
2,1, 7,21, 0, 3,40.00,50.00,SummerDesignDay
8,13.682651961920304
10,40258990.735390868
321,12000.0
2,1, 7,21, 0, 3,50.00,60.00,SummerDesignDay
8,13.659136670643687
10,40070878.157619189
321,52968155.91453503
2,1, 7,21, 0, 3, 0.00,60.00,SummerDesignDay
555,23.99469105981436
595,23.055921431069508
635,22.56816876830534
675,23.999200925058689
715,23.997873528360388
2,1, 7,21, 0, 4, 0.00,10.00,SummerDesignDay
8,13.63560137410855
10,39871060.37887746
321,769543.3835380506
2,1, 7,21, 0, 4,10.00,20.00,SummerDesignDay
8,13.612040802606578
10,39765443.09741565
321,1065927.0112262984
2,1, 7,21, 0, 4,20.00,30.00,SummerDesignDay
8,13.58846620506876
10,39572706.197152379
321,51866960.23746179
2,1, 7,21, 0, 4,30.00,40.00,SummerDesignDay
8,13.56487178447336
10,39441893.80653825
321,1827922.9181724373
2,1, 7,21, 0, 4,40.00,50.00,SummerDesignDay
8,13.541257354069103
10,39318792.64477448
321,979765.6811386156
2,1, 7,21, 0, 4,50.00,60.00,SummerDesignDay
8,13.517617463812285
10,39177883.50535668
321,51773749.92817472
2,1, 7,21, 0, 4, 0.00,60.00,SummerDesignDay
555,22.113948508398065
595,21.381140166367105
635,21.0379432911941
675,23.998789915443884
715,23.99661297003405
2,1, 7,21, 0, 5, 0.00,10.00,SummerDesignDay
8,13.50185415824011
10,39076170.50870911
321,784377.9642664674
2,1, 7,21, 0, 5,10.00,20.00,SummerDesignDay
8,13.486076034032447
10,38984690.325112719
321,12000.0
2,1, 7,21, 0, 5,20.00,30.00,SummerDesignDay
8,13.470289340350983
10,38834045.20557382
321,51674311.285650458
2,1, 7,21, 0, 5,30.00,40.00,SummerDesignDay
8,13.454493322631063
10,38859215.171588208
321,12000.0
2,1, 7,21, 0, 5,40.00,50.00,SummerDesignDay
8,13.438688835118548
10,38763872.95769058
321,12000.0
2,1, 7,21, 0, 5,50.00,60.00,SummerDesignDay
8,13.422888173889437
10,38719877.341803658
321,51565862.78722621
2,1, 7,21, 0, 5, 0.00,60.00,SummerDesignDay
555,21.144213355483289
595,20.496510262167154
635,20.21772309718935
675,23.995039621074914
715,23.99639902274933
2,1, 7,21, 0, 6, 0.00,10.00,SummerDesignDay
8,13.438688835118548
10,38730234.20235175
321,12000.0
2,1, 7,21, 0, 6,10.00,20.00,SummerDesignDay
8,13.454493322631063
10,38729551.91795188
321,21850607.306887624
2,1, 7,21, 0, 6,20.00,30.00,SummerDesignDay
8,13.470289340350983
10,38725091.176065128
321,29847618.12380611
2,1, 7,21, 0, 6,30.00,40.00,SummerDesignDay
8,13.486076034032447
10,38743280.09257229
321,12000.0
2,1, 7,21, 0, 6,40.00,50.00,SummerDesignDay
8,13.50185415824011
10,38744342.73076396
321,49833765.18130106
2,1, 7,21, 0, 6,50.00,60.00,SummerDesignDay
8,13.517617463812285
10,38746784.40246355
321,2113589.175153719
2,1, 7,21, 0, 6, 0.00,60.00,SummerDesignDay
555,20.725023271687843
595,20.143303882999338
635,19.89188582708886
675,23.959047199480378
715,23.99639436090877
2,1, 7,21, 0, 7, 0.00,10.00,SummerDesignDay
8,13.572736920571789
10,38810231.00321717
321,12000.0
2,1, 7,21, 0, 7,10.00,20.00,SummerDesignDay
8,13.627748229152554
10,38856411.25548998
321,51870312.87145874
2,1, 7,21, 0, 7,20.00,30.00,SummerDesignDay
8,13.682651961920304
10,39101427.008732337
321,12000.0
2,1, 7,21, 0, 7,30.00,40.00,SummerDesignDay
8,13.737448093244995
10,39222107.88641053
321,12000.0
2,1, 7,21, 0, 7,40.00,50.00,SummerDesignDay
8,13.792137011831216
10,39331687.57704118
321,51778531.83665109
2,1, 7,21, 0, 7,50.00,60.00,SummerDesignDay
8,13.846719282840333
10,39470922.3474563
321,12000.0
2,1, 7,21, 0, 7, 0.00,60.00,SummerDesignDay
555,20.740975541089765
595,20.189942551481946
635,19.951876704156058
675,23.992407956773606
715,23.99633157211635
2,1, 7,21, 0, 8, 0.00,10.00,SummerDesignDay
8,13.978831900527043
10,39790759.13985871
321,12000.0
2,1, 7,21, 0, 8,10.00,20.00,SummerDesignDay
8,14.110321014287419
10,40083850.92437015
321,51679497.56316651
2,1, 7,21, 0, 8,20.00,30.00,SummerDesignDay
8,14.241191509616986
10,40389259.380303349
321,12000.0
2,1, 7,21, 0, 8,30.00,40.00,SummerDesignDay
8,14.371447531304272
10,40682960.988532949
321,12000.0
2,1, 7,21, 0, 8,40.00,50.00,SummerDesignDay
8,14.501093766564925
10,40957921.156874228
321,51571547.626513238
2,1, 7,21, 0, 8,50.00,60.00,SummerDesignDay
8,14.630134792273804
10,41252570.30561467
321,12000.0
2,1, 7,21, 0, 8, 0.00,60.00,SummerDesignDay
555,21.250974370663096
595,20.733549383063907
635,20.510173241344235
675,23.998407113686878
715,23.996255057274394
2,1, 7,21, 0, 9, 0.00,10.00,SummerDesignDay
8,14.773641492809972
10,41555693.018313508
321,20317884.46815209
2,1, 7,21, 0, 9,10.00,20.00,SummerDesignDay
8,14.91640948124148
10,42104642.48573785
321,31366544.854518124
2,1, 7,21, 0, 9,20.00,30.00,SummerDesignDay
8,15.05843890714102
10,42156999.01867799
321,12000.0
2,1, 7,21, 0, 9,30.00,40.00,SummerDesignDay
8,15.199735893563798
10,42718410.91751416
321,48498568.54134596
2,1, 7,21, 0, 9,40.00,50.00,SummerDesignDay
8,15.340306256439395
10,42985602.101540919
321,3439007.3237185284
2,1, 7,21, 0, 9,50.00,60.00,SummerDesignDay
8,15.48015101768072
10,43279996.23798264
321,12000.0
2,1, 7,21, 0, 9, 0.00,60.00,SummerDesignDay
555,22.28567309225947
595,21.856819426976558
635,21.650326914515664
675,23.998343009800327
715,23.99624632365206
2,1, 7,21, 0,10, 0.00,10.00,SummerDesignDay
8,15.60467292907716
10,90171485.61291065
321,78220643.40277897
2,1, 7,21, 0,10,10.00,20.00,SummerDesignDay
8,15.72862731650033
10,97296713.94691111
321,84494516.58964457
2,1, 7,21, 0,10,20.00,30.00,SummerDesignDay
8,15.852017409284228
10,103167224.11829929
321,84134324.35850777
2,1, 7,21, 0,10,30.00,40.00,SummerDesignDay
8,15.974848118364367
10,108399811.02727337
321,83612305.01791814
2,1, 7,21, 0,10,40.00,50.00,SummerDesignDay
8,16.097123145563505
10,110598451.89005421
321,83657842.75763032
2,1, 7,21, 0,10,50.00,60.00,SummerDesignDay
8,16.218846351168599
10,111592872.73263726
321,83661643.87629092
2,1, 7,21, 0,10, 0.00,60.00,SummerDesignDay
555,23.904924220549277
595,23.760810759198365
635,23.63043664675324
675,23.998880554170556
715,23.997462065354225
2,1, 7,21, 0,11, 0.00,10.00,SummerDesignDay
8,16.325793027093189
10,143199869.32199187
321,83662427.04204807
2,1, 7,21, 0,11,10.00,20.00,SummerDesignDay
8,16.432322158488288
10,145119554.467439
321,74510801.71769838
2,1, 7,21, 0,11,20.00,30.00,SummerDesignDay
8,16.538424180249178
10,146214843.60618929
321,72609486.3506166
2,1, 7,21, 0,11,30.00,40.00,SummerDesignDay
8,16.644108396469087
10,147324487.72466434
321,72583228.89285861
2,1, 7,21, 0,11,40.00,50.00,SummerDesignDay
8,16.749376736593655
10,148334448.3552361
321,72556484.64870617
2,1, 7,21, 0,11,50.00,60.00,SummerDesignDay
8,16.854232613237156
10,149283426.6981181
321,72529447.79257182
2,1, 7,21, 0,11, 0.00,60.00,SummerDesignDay
555,23.997543270265685
595,23.997767394763227
635,23.997911296459276
675,23.99836293498986
715,23.996171521545749
2,1, 7,21, 0,12, 0.00,10.00,SummerDesignDay
8,16.92390823520069
10,182457323.10890536
321,42446405.87741024
2,1, 7,21, 0,12,10.00,20.00,SummerDesignDay
8,16.99340178950456
10,183053330.9962948
321,65017689.2900225
2,1, 7,21, 0,12,20.00,30.00,SummerDesignDay
8,17.06272006743463
10,183707404.99021168
321,65091913.10995393
2,1, 7,21, 0,12,30.00,40.00,SummerDesignDay
8,17.131853229172639
10,184367623.4866415
321,57289261.38958851
2,1, 7,21, 0,12,40.00,50.00,SummerDesignDay
8,17.200807172194087
10,184935263.78392879
321,15697978.669386967
2,1, 7,21, 0,12,50.00,60.00,SummerDesignDay
8,17.269582116758607
10,185455383.21988753
321,57196755.55292375
2,1, 7,21, 0,12, 0.00,60.00,SummerDesignDay
555,23.995990821390973
595,23.9961690703779
635,23.996282342656398
675,23.998461746363405
715,23.998358924798798
2,1, 7,21, 0,13, 0.00,10.00,SummerDesignDay
8,17.32447360221357
10,191205152.9034628
321,69690921.12471344
2,1, 7,21, 0,13,10.00,20.00,SummerDesignDay
8,17.379251291230806
10,192260355.913814
321,70291555.63925988
2,1, 7,21, 0,13,20.00,30.00,SummerDesignDay
8,17.433921312061729
10,192836564.52058397
321,70324972.206549
2,1, 7,21, 0,13,30.00,40.00,SummerDesignDay
8,17.488473222557489
10,193340917.46407444
321,50431933.1981196
2,1, 7,21, 0,13,40.00,50.00,SummerDesignDay
8,17.542913447755134
10,193775861.9479793
321,40478359.18857615
2,1, 7,21, 0,13,50.00,60.00,SummerDesignDay
8,17.59724609886134
10,194173454.88751547
321,49669608.9519362
2,1, 7,21, 0,13, 0.00,60.00,SummerDesignDay
555,23.994519784069526
595,24.020582972755617
635,24.053229629214319
675,23.99840843697109
715,24.102597832477433
2,1, 7,21, 0,14, 0.00,10.00,SummerDesignDay
8,17.6311450462694
10,193912210.9580228
321,75705245.691037
2,1, 7,21, 0,14,10.00,20.00,SummerDesignDay
8,17.665000449016245
10,194222363.1319921
321,76376092.79189433
2,1, 7,21, 0,14,20.00,30.00,SummerDesignDay
8,17.698812743128934
10,194438990.90805588
321,76385603.8251689
2,1, 7,21, 0,14,30.00,40.00,SummerDesignDay
8,17.732582050940107
10,194659567.76941786
321,76394533.6624567
2,1, 7,21, 0,14,40.00,50.00,SummerDesignDay
8,17.766307345121004
10,194877849.81429503
321,76403413.62591188
2,1, 7,21, 0,14,50.00,60.00,SummerDesignDay
8,17.79999023167558
10,195086763.59863828
321,76412265.7635318
2,1, 7,21, 0,14, 0.00,60.00,SummerDesignDay
555,23.99361165942052
595,24.082130099348423
635,24.144443320411047
675,23.998293657937169
715,24.283541586416694
2,1, 7,21, 0,15, 0.00,10.00,SummerDesignDay
8,17.79999023167558
10,193169639.2729518
321,60950910.77967091
2,1, 7,21, 0,15,10.00,20.00,SummerDesignDay
8,17.79999023167558
10,190988535.61994339
321,58711083.49537394
2,1, 7,21, 0,15,20.00,30.00,SummerDesignDay
8,17.79999023167558
10,191540471.0135273
321,58623079.63928708
2,1, 7,21, 0,15,30.00,40.00,SummerDesignDay
8,17.79999023167558
10,191273314.58571483
321,58532491.21017295
2,1, 7,21, 0,15,40.00,50.00,SummerDesignDay
8,17.79999023167558
10,191145869.32919333
321,68729806.72253798
2,1, 7,21, 0,15,50.00,60.00,SummerDesignDay
8,17.79999023167558
10,191068779.5809855
321,76369573.3317666
2,1, 7,21, 0,15, 0.00,60.00,SummerDesignDay
555,23.994544910720948
595,23.99856759899292
635,23.999453791896874
675,23.998238007677803
715,24.392978904067083
2,1, 7,21, 0,16, 0.00,10.00,SummerDesignDay
8,17.759562446305357
10,186654019.0799063
321,66033211.9317998
2,1, 7,21, 0,16,10.00,20.00,SummerDesignDay
8,17.71907809634183
10,185426732.69128774
321,65121190.538420539
2,1, 7,21, 0,16,20.00,30.00,SummerDesignDay
8,17.67853788661001
10,184875353.64768274
321,42051103.58711606
2,1, 7,21, 0,16,30.00,40.00,SummerDesignDay
8,17.63791796367351
10,184299387.04967056
321,23087067.239783195
2,1, 7,21, 0,16,40.00,50.00,SummerDesignDay
8,17.59724609886134
10,183794448.341173
321,65008114.37876861
2,1, 7,21, 0,16,50.00,60.00,SummerDesignDay
8,17.55650676726033
10,183340577.83997277
321,65070556.62659761
2,1, 7,21, 0,16, 0.00,60.00,SummerDesignDay
555,23.99640318022894
595,23.996542199797064
635,23.996629297375994
675,23.998223923911956
715,24.382737198223226
2,1, 7,21, 0,17, 0.00,10.00,SummerDesignDay
8,17.50209486331892
10,182828820.06705056
321,48389703.08369954
2,1, 7,21, 0,17,10.00,20.00,SummerDesignDay
8,17.447570789624618
10,182033196.43376825
321,12642856.322653233
2,1, 7,21, 0,17,20.00,30.00,SummerDesignDay
8,17.392929544208135
10,181562675.95012243
321,60534035.293355207
2,1, 7,21, 0,17,30.00,40.00,SummerDesignDay
8,17.33818013976614
10,181089308.47507597
321,60707689.53397196
2,1, 7,21, 0,17,40.00,50.00,SummerDesignDay
8,17.283317298559309
10,180635052.00161714
321,12000.0
2,1, 7,21, 0,17,50.00,60.00,SummerDesignDay
8,17.22833552437677
10,180216257.22427229
321,60518219.42352615
2,1, 7,21, 0,17, 0.00,60.00,SummerDesignDay
555,23.99752812467514
595,23.997635062966748
635,23.997710063532656
675,23.998209568804986
715,24.263879680140265
2,1, 7,21, 0,18, 0.00,10.00,SummerDesignDay
8,17.159453019160176
10,181086322.2360633
321,60672821.38406616
2,1, 7,21, 0,18,10.00,20.00,SummerDesignDay
8,17.090391773337136
10,180683449.3189387
321,12000.0
2,1, 7,21, 0,18,20.00,30.00,SummerDesignDay
8,17.021151077964786
10,180252597.65504847
321,60504056.88861236
2,1, 7,21, 0,18,30.00,40.00,SummerDesignDay
8,16.951729380464653
10,179839086.5597499
321,60637388.92099379
2,1, 7,21, 0,18,40.00,50.00,SummerDesignDay
8,16.882126503829249
10,179398372.64197243
321,9231229.593869664
2,1, 7,21, 0,18,50.00,60.00,SummerDesignDay
8,16.812341807494034
10,178956003.86929725
321,51295644.3760833
2,1, 7,21, 0,18, 0.00,60.00,SummerDesignDay
555,23.997575008770668
595,23.997708412834855
635,23.997788436229994
675,23.998109466974176
715,24.08529979642495
2,1, 7,21, 0,19, 0.00,10.00,SummerDesignDay
8,16.707321072823203
10,182242245.60936243
321,64581546.5622779
2,1, 7,21, 0,19,10.00,20.00,SummerDesignDay
8,16.601881826644556
10,182192380.6630527
321,65162489.75452738
2,1, 7,21, 0,19,20.00,30.00,SummerDesignDay
8,16.496030555252849
10,181620113.31737937
321,17191605.35254281
2,1, 7,21, 0,19,30.00,40.00,SummerDesignDay
8,16.389760181474104
10,181100451.71117599
321,47847412.28016259
2,1, 7,21, 0,19,40.00,50.00,SummerDesignDay
8,16.283067654262039
10,180542902.27480618
321,65031797.2380609
2,1, 7,21, 0,19,50.00,60.00,SummerDesignDay
8,16.17595057957811
10,179923879.58363865
321,65114144.37827766
2,1, 7,21, 0,19, 0.00,60.00,SummerDesignDay
555,23.99629049212095
595,23.99639627436022
635,23.996447748471899
675,23.99798055567295
715,23.995519863801815
2,1, 7,21, 0,20, 0.00,10.00,SummerDesignDay
8,16.097123145563505
10,183652054.0610065
321,63306738.14403156
2,1, 7,21, 0,20,10.00,20.00,SummerDesignDay
8,16.018070242471564
10,183770835.32633619
321,40623500.754417907
2,1, 7,21, 0,20,20.00,30.00,SummerDesignDay
8,15.938779752340516
10,183457563.32623593
321,40280178.916325088
2,1, 7,21, 0,20,30.00,40.00,SummerDesignDay
8,15.85926152575189
10,183157885.08634667
321,66150346.925209108
2,1, 7,21, 0,20,40.00,50.00,SummerDesignDay
8,15.779503718563929
10,182801818.62857468
321,70249615.49027045
2,1, 7,21, 0,20,50.00,60.00,SummerDesignDay
8,15.699515709672767
10,182392618.67124764
321,70281073.45945277
2,1, 7,21, 0,20, 0.00,60.00,SummerDesignDay
555,23.993994540987719
595,23.993965266308057
635,23.993895901934754
675,23.997955521041008
715,23.995418155726939
2,1, 7,21, 0,21, 0.00,10.00,SummerDesignDay
8,15.63389147320404
10,182035607.0391545
321,89628434.4334645
2,1, 7,21, 0,21,10.00,20.00,SummerDesignDay
8,15.56810827419793
10,182622222.6628303
321,92455433.63659056
2,1, 7,21, 0,21,20.00,30.00,SummerDesignDay
8,15.502170882753524
10,182314391.87218378
321,92453920.2674286
2,1, 7,21, 0,21,30.00,40.00,SummerDesignDay
8,15.436068032613852
10,182017499.82251484
321,91286631.53113367
2,1, 7,21, 0,21,40.00,50.00,SummerDesignDay
8,15.369804371206009
10,181696405.1604273
321,83575994.37596116
2,1, 7,21, 0,21,50.00,60.00,SummerDesignDay
8,15.303384603594449
10,181338552.46887473
321,83563740.27295956
2,1, 7,21, 0,21, 0.00,60.00,SummerDesignDay
555,23.99245229290213
595,23.992400473169256
635,23.992285280072307
675,23.998015518606974
715,23.99548430846082
2,1, 7,21, 0,22, 0.00,10.00,SummerDesignDay
8,15.236797685071274
10,180952334.94051574
321,83550791.88142263
2,1, 7,21, 0,22,10.00,20.00,SummerDesignDay
8,15.170047891787942
10,180546832.84847913
321,83537715.47293517
2,1, 7,21, 0,22,20.00,30.00,SummerDesignDay
8,15.103134826860483
10,180128824.8661736
321,83524540.46941476
2,1, 7,21, 0,22,30.00,40.00,SummerDesignDay
8,15.036063385178485
10,179702413.57424797
321,83511265.84309598
2,1, 7,21, 0,22,40.00,50.00,SummerDesignDay
8,14.968821767219835
10,179269809.5414608
321,83497890.55025955
2,1, 7,21, 0,22,50.00,60.00,SummerDesignDay
8,14.90141525878635
10,178832309.1335141
321,83484413.53287652
2,1, 7,21, 0,22, 0.00,60.00,SummerDesignDay
555,23.991696570826535
595,23.991691791938036
635,23.991597707890596
675,23.998085104705554
715,23.995554547819
2,1, 7,21, 0,23, 0.00,10.00,SummerDesignDay
8,14.848873673278373
10,173889935.2567263
321,91547293.62224408
2,1, 7,21, 0,23,10.00,20.00,SummerDesignDay
8,14.796237168136719
10,173606180.76446916
321,92346870.54995917
2,1, 7,21, 0,23,20.00,30.00,SummerDesignDay
8,14.743494321455645
10,173145828.05308918
321,102860180.32218741
2,1, 7,21, 0,23,30.00,40.00,SummerDesignDay
8,14.690649975253665
10,172660533.20235465
321,103339833.4975712
2,1, 7,21, 0,23,40.00,50.00,SummerDesignDay
8,14.637704281233117
10,172208920.97213979
321,103336514.17257469
2,1, 7,21, 0,23,50.00,60.00,SummerDesignDay
8,14.584656914839757
10,171780084.56172849
321,103333212.7491231
2,1, 7,21, 0,23, 0.00,60.00,SummerDesignDay
555,23.9930880007349
595,23.993274779601028
635,23.99333357426421
675,23.998154234667024
715,23.995624146286759
2,1, 7,21, 0,24, 0.00,10.00,SummerDesignDay
8,14.531507212058875
10,168177353.7165948
321,103329881.1020006
2,1, 7,21, 0,24,10.00,20.00,SummerDesignDay
8,14.47825496413355
10,167576245.8205571
321,103326518.90697092
2,1, 7,21, 0,24,20.00,30.00,SummerDesignDay
8,14.4249000133173
10,167120471.4888287
321,103323125.9411165
2,1, 7,21, 0,24,30.00,40.00,SummerDesignDay
8,14.371447531304272
10,166650661.55514939
321,100233370.68202777
2,1, 7,21, 0,24,40.00,50.00,SummerDesignDay
8,14.31788619902223
10,166201853.27549855
321,92439731.31378915
2,1, 7,21, 0,24,50.00,60.00,SummerDesignDay
8,14.264220970176066
10,165769149.25332389
321,92428871.0893119
2,1, 7,21, 0,24, 0.00,60.00,SummerDesignDay
555,23.994485884837517
595,23.994784196927573
635,23.994942216272638
675,23.998220165209906
715,23.995694126195827
3,1, 7,21, 0,SummerDesignDay
556,51.22930538311715,45.57304006737674, 2,40,56.290179094421457, 6,60
596,53.428417167748857,47.623496683026669,10,17,58.2707503377369, 6,60
636,54.71533127121453,48.27956242347795,10,26,59.392351259963508,15,10
676,52.24546664406723,49.999547785402487,24,10,54.096841132738628,17,20
716,56.78018141983034,54.33200821518957, 2,10,59.689550777693238,17,20
4,1, 7
7,22.2505,16.5,21, 5,60,28.9,21,14,60
1,FORT MCMURRAY AP ANN HTG 99.6% CONDNS DB,  56.65,-111.22,  -7.00, 369.10
2,1, 1,21, 0, 1, 0.00,10.00,WinterDesignDay
8,-36.2
10,129026910.88065736
321,553139965.4376938
2,1, 1,21, 0, 1,10.00,20.00,WinterDesignDay
8,-36.2
10,129026910.88065736
321,554497700.4622291
2,1, 1,21, 0, 1,20.00,30.00,WinterDesignDay
8,-36.2
10,129026910.88065736
321,557452291.2038322
2,1, 1,21, 0, 1,30.00,40.00,WinterDesignDay
8,-36.2
10,129026910.88065736
321,556790627.7537153
2,1, 1,21, 0, 1,40.00,50.00,WinterDesignDay
8,-36.2
10,129026910.88065736
321,557442798.7990044
2,1, 1,21, 0, 1,50.00,60.00,WinterDesignDay
8,-36.2
10,129026910.88065736
321,557584551.3605398
2,1, 1,21, 0, 1, 0.00,60.00,WinterDesignDay
555,22.024028918088864
595,21.99732066388474
635,21.995388453143354
675,22.009116895745394
715,22.90604077682144
2,1, 1,21, 0, 2, 0.00,10.00,WinterDesignDay
8,-36.2
10,82555028.12896124
321,598688716.2011447
2,1, 1,21, 0, 2,10.00,20.00,WinterDesignDay
8,-36.2
10,82555028.12896124
321,611022747.9989752
2,1, 1,21, 0, 2,20.00,30.00,WinterDesignDay
8,-36.2
10,82555028.12896124
321,620292547.9355306
2,1, 1,21, 0, 2,30.00,40.00,WinterDesignDay
8,-36.2
10,82555028.12896124
321,621330782.1720352
2,1, 1,21, 0, 2,40.00,50.00,WinterDesignDay
8,-36.2
10,82555028.12896124
321,622055959.1707114
2,1, 1,21, 0, 2,50.00,60.00,WinterDesignDay
8,-36.2
10,82555028.12896124
321,622615570.8546383
2,1, 1,21, 0, 2, 0.00,60.00,WinterDesignDay
555,21.997928812628058
595,21.998075947311226
635,21.998171791225436
675,21.92936851781491
715,22.83011033023563
2,1, 1,21, 0, 3, 0.00,10.00,WinterDesignDay
8,-36.2
10,36083145.37726513
321,477785052.9567794
2,1, 1,21, 0, 3,10.00,20.00,WinterDesignDay
8,-36.2
10,36083145.37726513
321,540530471.7131472
2,1, 1,21, 0, 3,20.00,30.00,WinterDesignDay
8,-36.2
10,36083145.37726513
321,498682311.0227525
2,1, 1,21, 0, 3,30.00,40.00,WinterDesignDay
8,-36.2
10,36083145.37726513
321,568623694.6420143
2,1, 1,21, 0, 3,40.00,50.00,WinterDesignDay
8,-36.2
10,36083145.37726513
321,530515859.28436687
2,1, 1,21, 0, 3,50.00,60.00,WinterDesignDay
8,-36.2
10,36083145.37726513
321,546680434.5337173
2,1, 1,21, 0, 3, 0.00,60.00,WinterDesignDay
555,18.71640023985178
595,18.95830600509871
635,19.149081512598007
675,21.766442155165128
715,22.683639452107884
2,1, 1,21, 0, 4, 0.00,10.00,WinterDesignDay
8,-36.2
10,36083145.37726513
321,604699997.7202293
2,1, 1,21, 0, 4,10.00,20.00,WinterDesignDay
8,-36.2
10,36083145.37726513
321,551404605.9859741
2,1, 1,21, 0, 4,20.00,30.00,WinterDesignDay
8,-36.2
10,36083145.37726513
321,606450813.554954
2,1, 1,21, 0, 4,30.00,40.00,WinterDesignDay
8,-36.2
10,36083145.37726513
321,554392724.6347469
2,1, 1,21, 0, 4,40.00,50.00,WinterDesignDay
8,-36.2
10,36083145.37726513
321,555041547.678031
2,1, 1,21, 0, 4,50.00,60.00,WinterDesignDay
8,-36.2
10,36083145.37726513
321,608183342.9632566
2,1, 1,21, 0, 4, 0.00,60.00,WinterDesignDay
555,17.999792383138496
595,17.9998407158188
635,17.99989689491031
675,21.407960201092107
715,22.36411147627153
2,1, 1,21, 0, 5, 0.00,10.00,WinterDesignDay
8,-36.2
10,36083145.37726513
321,555964027.0582779
2,1, 1,21, 0, 5,10.00,20.00,WinterDesignDay
8,-36.2
10,36083145.37726513
321,609175380.4673492
2,1, 1,21, 0, 5,20.00,30.00,WinterDesignDay
8,-36.2
10,36083145.37726513
321,556557205.4557618
2,1, 1,21, 0, 5,30.00,40.00,WinterDesignDay
8,-36.2
10,36083145.37726513
321,556756592.5797893
2,1, 1,21, 0, 5,40.00,50.00,WinterDesignDay
8,-36.2
10,36083145.37726513
321,609517913.4751614
2,1, 1,21, 0, 5,50.00,60.00,WinterDesignDay
8,-36.2
10,36083145.37726513
321,557062820.4542694
2,1, 1,21, 0, 5, 0.00,60.00,WinterDesignDay
555,17.99991191258342
595,17.999916965931346
635,17.99991828131706
675,21.171800036897399
715,22.18226681130389
2,1, 1,21, 0, 6, 0.00,10.00,WinterDesignDay
8,-36.2
10,36083145.37726513
321,610024155.2148931
2,1, 1,21, 0, 6,10.00,20.00,WinterDesignDay
8,-36.2
10,36083145.37726513
321,557281064.1407168
2,1, 1,21, 0, 6,20.00,30.00,WinterDesignDay
8,-36.2
10,36083145.37726513
321,567796214.2019118
2,1, 1,21, 0, 6,30.00,40.00,WinterDesignDay
8,-36.2
10,36083145.37726513
321,599596090.0701753
2,1, 1,21, 0, 6,40.00,50.00,WinterDesignDay
8,-36.2
10,36083145.37726513
321,557459167.7003547
2,1, 1,21, 0, 6,50.00,60.00,WinterDesignDay
8,-36.2
10,36083145.37726513
321,610315151.069672
2,1, 1,21, 0, 6, 0.00,60.00,WinterDesignDay
555,17.999946655516806
595,17.99995048524414
635,17.999951820268867
675,21.074163571036004
715,22.115629764959153
2,1, 1,21, 0, 7, 0.00,10.00,WinterDesignDay
8,-36.2
10,36083145.37726513
321,557552874.5362448
2,1, 1,21, 0, 7,10.00,20.00,WinterDesignDay
8,-36.2
10,36083145.37726513
321,580402993.083732
2,1, 1,21, 0, 7,20.00,30.00,WinterDesignDay
8,-36.2
10,36083145.37726513
321,587512121.1027428
2,1, 1,21, 0, 7,30.00,40.00,WinterDesignDay
8,-36.2
10,36083145.37726513
321,557628674.3424618
2,1, 1,21, 0, 7,40.00,50.00,WinterDesignDay
8,-36.2
10,36083145.37726513
321,610424551.3156623
2,1, 1,21, 0, 7,50.00,60.00,WinterDesignDay
8,-36.2
10,36083145.37726513
321,557675288.7912798
2,1, 1,21, 0, 7, 0.00,60.00,WinterDesignDay
555,17.999958002055796
595,17.999960208013545
635,17.99996084024298
675,21.03544533292406
715,22.091039986194983
2,1, 1,21, 0, 8, 0.00,10.00,WinterDesignDay
8,-36.2
10,36083145.37726513
321,592074329.2682819
2,1, 1,21, 0, 8,10.00,20.00,WinterDesignDay
8,-36.2
10,36083145.37726513
321,576145291.0637302
2,1, 1,21, 0, 8,20.00,30.00,WinterDesignDay
8,-36.2
10,36083145.37726513
321,557710475.1321457
2,1, 1,21, 0, 8,30.00,40.00,WinterDesignDay
8,-36.2
10,36083145.37726513
321,610462873.3012302
2,1, 1,21, 0, 8,40.00,50.00,WinterDesignDay
8,-36.2
10,36083145.37726513
321,557740595.4541538
2,1, 1,21, 0, 8,50.00,60.00,WinterDesignDay
8,-36.2
10,36083145.37726513
321,602990663.2946525
2,1, 1,21, 0, 8, 0.00,60.00,WinterDesignDay
555,17.999961858152287
595,17.99996315470591
635,17.999963398514546
675,21.019145519717708
715,22.08110848347776
2,1, 1,21, 0, 9, 0.00,10.00,WinterDesignDay
8,-36.2
10,36083145.37726513
321,692279136.9848158
2,1, 1,21, 0, 9,10.00,20.00,WinterDesignDay
8,-36.2
10,36083145.37726513
321,593383703.4239514
2,1, 1,21, 0, 9,20.00,30.00,WinterDesignDay
8,-36.2
10,36083145.37726513
321,660560481.8649942
2,1, 1,21, 0, 9,30.00,40.00,WinterDesignDay
8,-36.2
10,36083145.37726513
321,591913631.7397307
2,1, 1,21, 0, 9,40.00,50.00,WinterDesignDay
8,-36.2
10,36083145.37726513
321,642008022.5111425
2,1, 1,21, 0, 9,50.00,60.00,WinterDesignDay
8,-36.2
10,36083145.37726513
321,588441319.224596
2,1, 1,21, 0, 9, 0.00,60.00,WinterDesignDay
555,19.972519845186736
595,19.971693095335387
635,19.972977506316466
675,22.004030034555354
715,22.094140834469618
2,1, 1,21, 0,10, 0.00,10.00,WinterDesignDay
8,-36.2
10,82555028.12896124
321,747185408.5306337
2,1, 1,21, 0,10,10.00,20.00,WinterDesignDay
8,-36.2
10,82555028.12896124
321,594947202.4648099
2,1, 1,21, 0,10,20.00,30.00,WinterDesignDay
8,-36.2
10,82555028.12896124
321,669395301.9246854
2,1, 1,21, 0,10,30.00,40.00,WinterDesignDay
8,-36.2
10,82555028.12896124
321,645762640.4908582
2,1, 1,21, 0,10,40.00,50.00,WinterDesignDay
8,-36.2
10,82555028.12896124
321,640981848.6801319
2,1, 1,21, 0,10,50.00,60.00,WinterDesignDay
8,-36.2
10,82555028.12896124
321,639412139.9066366
2,1, 1,21, 0,10, 0.00,60.00,WinterDesignDay
555,21.976157849916676
595,21.973489745342886
635,21.975270673938885
675,21.998809390743877
715,22.228564146213164
2,1, 1,21, 0,11, 0.00,10.00,WinterDesignDay
8,-36.2
10,105790969.5048093
321,611821071.2218303
2,1, 1,21, 0,11,10.00,20.00,WinterDesignDay
8,-36.2
10,105790969.5048093
321,607665287.4689269
2,1, 1,21, 0,11,20.00,30.00,WinterDesignDay
8,-36.2
10,105790969.5048093
321,606595830.2489113
2,1, 1,21, 0,11,30.00,40.00,WinterDesignDay
8,-36.2
10,105790969.5048093
321,605352032.7205895
2,1, 1,21, 0,11,40.00,50.00,WinterDesignDay
8,-36.2