Program Version,EnergyPlus, Version 8.9.0-eba93e8e1b, YMD=2019.03.07 21:45
1,5,Environment Title[],Latitude[deg],Longitude[deg],Time Zone[],Elevation[m]
2,8,Day of Simulation[],Month[],Day of Month[],DST Indicator[1=yes 0=no],Hour[],StartMinute[],EndMinute[],DayType
3,5,Cumulative Day of Simulation[],Month[],Day of Month[],DST Indicator[1=yes 0=no],DayType  ! When Daily Report Variables Requested
4,2,Cumulative Days of Simulation[],Month[]  ! When Monthly Report Variables Requested
5,1,Cumulative Days of Simulation[] ! When Run Period Report Variables Requested
6,1,Calendar Year of Simulation[] ! When Annual Report Variables Requested
7,9,Environment,Site Outdoor Air Drybulb Temperature [C] !Monthly [Value,Min,Day,Hour,Minute,Max,Day,Hour,Minute]
8,1,Environment,Site Outdoor Air Wetbulb Temperature [C] !TimeStep
1125,1,ALL_ST=WAREHOUSE - MED/BLK - REFRIGERATED_FL=STORY 4_SCH=A,Zone Air Temperature [C] !Hourly
1126,7,ALL_ST=WAREHOUSE - MED/BLK - REFRIGERATED_FL=STORY 4_SCH=A,Zone Air Relative Humidity [%] !Daily [Value,Min,Hour,Minute,Max,Hour,Minute]
1165,1,ALL_ST=WAREHOUSE - MED/BLK2 - REFRIGERATED_FL=STORY 3_SCH=A,Zone Air Temperature [C] !Hourly
1166,7,ALL_ST=WAREHOUSE - MED/BLK2 - REFRIGERATED_FL=STORY 3_SCH=A,Zone Air Relative Humidity [%] !Daily [Value,Min,Hour,Minute,Max,Hour,Minute]
1205,1,ALL_ST=WAREHOUSE - MED/BLK2_FL=STORY 3_SCH=A,Zone Air Temperature [C] !Hourly
1206,7,ALL_ST=WAREHOUSE - MED/BLK2_FL=STORY 3_SCH=A,Zone Air Relative Humidity [%] !Daily [Value,Min,Hour,Minute,Max,Hour,Minute]
1245,1,ALL_ST=WAREHOUSE - MED/BLK_FL=STORY 4_SCH=A,Zone Air Temperature [C] !Hourly
1246,7,ALL_ST=WAREHOUSE - MED/BLK_FL=STORY 4_SCH=A,Zone Air Relative Humidity [%] !Daily [Value,Min,Hour,Minute,Max,Hour,Minute]
1285,1,ALL_ST=WHOLEBUILDING_FL=STORY 2_SCH=A,Zone Air Temperature [C] !Hourly
1286,7,ALL_ST=WHOLEBUILDING_FL=STORY 2_SCH=A,Zone Air Relative Humidity [%] !Daily [Value,Min,Hour,Minute,Max,Hour,Minute]
1325,1,ALL_ST=WHOLEBUILDING_FL=STORY 2_SCH=A 1,Zone Air Temperature [C] !Hourly
1326,7,ALL_ST=WHOLEBUILDING_FL=STORY 2_SCH=A 1,Zone Air Relative Humidity [%] !Daily [Value,Min,Hour,Minute,Max,Hour,Minute]
1365,1,ALL_ST=WHOLEBUILDING_FL=STORY 2_SCH=A 2,Zone Air Temperature [C] !Hourly
1366,7,ALL_ST=WHOLEBUILDING_FL=STORY 2_SCH=A 2,Zone Air Relative Humidity [%] !Daily [Value,Min,Hour,Minute,Max,Hour,Minute]
1405,1,ALL_ST=WHOLEBUILDING_FL=STORY 2_SCH=B,Zone Air Temperature [C] !Hourly
1406,7,ALL_ST=WHOLEBUILDING_FL=STORY 2_SCH=B,Zone Air Relative Humidity [%] !Daily [Value,Min,Hour,Minute,Max,Hour,Minute]
1445,1,ALL_ST=WHOLEBUILDING_FL=STORY 2_SCH=H,Zone Air Temperature [C] !Hourly
1446,7,ALL_ST=WHOLEBUILDING_FL=STORY 2_SCH=H,Zone Air Relative Humidity [%] !Daily [Value,Min,Hour,Minute,Max,Hour,Minute]
1485,1,ALL_ST=WHOLEBUILDING_FL=STORY 4_SCH=D,Zone Air Temperature [C] !Hourly
1486,7,ALL_ST=WHOLEBUILDING_FL=STORY 4_SCH=D,Zone Air Relative Humidity [%] !Daily [Value,Min,Hour,Minute,Max,Hour,Minute]
1525,1,ALL_ST=WORKSHOP SPACE_FL=STORY 1_SCH=A,Zone Air Temperature [C] !Hourly
1526,7,ALL_ST=WORKSHOP SPACE_FL=STORY 1_SCH=A,Zone Air Relative Humidity [%] !Daily [Value,Min,Hour,Minute,Max,Hour,Minute]
1565,1,WET_ST=WASHROOM-SCH-A_FL=STORY 3_SCHA,Zone Air Temperature [C] !Hourly
1566,7,WET_ST=WASHROOM-SCH-A_FL=STORY 3_SCHA,Zone Air Relative Humidity [%] !Daily [Value,Min,Hour,Minute,Max,Hour,Minute]
1605,1,WET_ST=WASHROOM-SCH-B_FL=STORY 1_SCHA,Zone Air Temperature [C] !Hourly
1606,7,WET_ST=WASHROOM-SCH-B_FL=STORY 1_SCHA,Zone Air Relative Humidity [%] !Daily [Value,Min,Hour,Minute,Max,Hour,Minute]
1645,1,WET_ST=WASHROOM-SCH-C_FL=STORY 1_SCHA,Zone Air Temperature [C] !Hourly
1646,7,WET_ST=WASHROOM-SCH-C_FL=STORY 1_SCHA,Zone Air Relative Humidity [%] !Daily [Value,Min,Hour,Minute,Max,Hour,Minute]
1685,1,WET_ST=WASHROOM-SCH-D_FL=STORY 1_SCHA,Zone Air Temperature [C] !Hourly
1686,7,WET_ST=WASHROOM-SCH-D_FL=STORY 1_SCHA,Zone Air Relative Humidity [%] !Daily [Value,Min,Hour,Minute,Max,Hour,Minute]
1725,1,WET_ST=WASHROOM-SCH-E_FL=STORY 4_SCHA,Zone Air Temperature [C] !Hourly
1726,7,WET_ST=WASHROOM-SCH-E_FL=STORY 4_SCHA,Zone Air Relative Humidity [%] !Daily [Value,Min,Hour,Minute,Max,Hour,Minute]
1765,1,WET_ST=WASHROOM-SCH-F_FL=STORY 3_SCHA,Zone Air Temperature [C] !Hourly
1766,7,WET_ST=WASHROOM-SCH-F_FL=STORY 3_SCHA,Zone Air Relative Humidity [%] !Daily [Value,Min,Hour,Minute,Max,Hour,Minute]
1805,1,WET_ST=WASHROOM-SCH-G_FL=STORY 3_SCHA,Zone Air Temperature [C] !Hourly
1806,7,WET_ST=WASHROOM-SCH-G_FL=STORY 3_SCHA,Zone Air Relative Humidity [%] !Daily [Value,Min,Hour,Minute,Max,Hour,Minute]
1845,1,WET_ST=WASHROOM-SCH-H_FL=STORY 1_SCHA,Zone Air Temperature [C] !Hourly
1846,7,WET_ST=WASHROOM-SCH-H_FL=STORY 1_SCHA,Zone Air Relative Humidity [%] !Daily [Value,Min,Hour,Minute,Max,Hour,Minute]
1885,1,WET_ST=WASHROOM-SCH-I_FL=STORY 4_SCHA,Zone Air Temperature [C] !Hourly
1886,7,WET_ST=WASHROOM-SCH-I_FL=STORY 4_SCHA,Zone Air Relative Humidity [%] !Daily [Value,Min,Hour,Minute,Max,Hour,Minute]
10,1,Electricity:Facility [J] !TimeStep
891,1,Gas:Facility [J] !TimeStep
End of Data Dictionary
1,FORT MCMURRAY AP ANN CLG .4% CONDNS DB=>MWB,  56.65,-111.22,  -7.00, 369.10
2,1, 7,21, 0, 1, 0.00,10.00,SummerDesignDay
8,14.218136923962174
10,66770669.49598435
891,10405779.118939748
2,1, 7,21, 0, 1,10.00,20.00,SummerDesignDay
8,14.171982153293495
10,66421592.366981718
891,9167568.773338449
2,1, 7,21, 0, 1,20.00,30.00,SummerDesignDay
8,14.125744780286427
10,66324040.13734778
891,18657299.864850634
2,1, 7,21, 0, 1,30.00,40.00,SummerDesignDay
8,14.079436086331978
10,66226361.8095653
891,19040888.946085827
2,1, 7,21, 0, 1,40.00,50.00,SummerDesignDay
8,14.033050387896898
10,66126969.3016806
891,19069611.527888329
2,1, 7,21, 0, 1,50.00,60.00,SummerDesignDay
8,13.986581233564835
10,66029993.476229827
891,19098798.890259498
2,1, 7,21, 0, 1, 0.00,60.00,SummerDesignDay
1125,25.74145108831566
1165,25.583773929419963
1205,25.461718877972478
1245,24.77632276464196
1285,25.214594384030677
1325,25.391230005945006
1365,24.198607971502669
1405,23.99847380408728
1445,23.998661297749057
1485,24.408075327165638
1525,22.763513491641917
1565,26.601700008588098
1605,25.18347224241728
1645,24.955098005930638
1685,25.026896685514904
1725,24.343601357875426
1765,25.766756598246034
1805,25.35284676852105
1845,25.422666251556128
1885,24.430504198926668
2,1, 7,21, 0, 2, 0.00,10.00,SummerDesignDay
8,13.95555882260429
10,58365259.651340428
891,6845052.088679596
2,1, 7,21, 0, 2,10.00,20.00,SummerDesignDay
8,13.924507755336454
10,58139825.09344041
891,11426825.366965821
2,1, 7,21, 0, 2,20.00,30.00,SummerDesignDay
8,13.893416042989206
10,58122610.280743937
891,18265502.378722054
2,1, 7,21, 0, 2,30.00,40.00,SummerDesignDay
8,13.862289589689029
10,58113789.93692951
891,18290576.696644829
2,1, 7,21, 0, 2,40.00,50.00,SummerDesignDay
8,13.831134407608739
10,58108139.63585063
891,17020064.265063015
2,1, 7,21, 0, 2,50.00,60.00,SummerDesignDay
8,13.799938415548118
10,58101147.56857698
891,5505217.850678235
2,1, 7,21, 0, 2, 0.00,60.00,SummerDesignDay
1125,25.27960595935637
1165,25.339855467099175
1205,25.326492470390649
1245,24.466918816366144
1285,25.094665738938436
1325,25.185881746071187
1365,23.973632033817365
1405,24.64246062445875
1445,23.99882011469411
1485,24.220936792505964
1525,22.449010960681119
1565,26.351230265133073
1605,25.075136028013778
1645,24.844589285850657
1685,24.90987630116149
1725,24.09529384950311
1765,25.57554254253057
1805,25.179423471859569
1845,25.304083118639516
1885,24.197149990211515
2,1, 7,21, 0, 3, 0.00,10.00,SummerDesignDay
8,13.776521671948676
10,53865364.14907448
891,12025287.050956546
2,1, 7,21, 0, 3,10.00,20.00,SummerDesignDay
8,13.753085235778466
10,53860429.111904408
891,10787008.098592584
2,1, 7,21, 0, 3,20.00,30.00,SummerDesignDay
8,13.729636002354969
10,53852111.08989218
891,4705515.569188902
2,1, 7,21, 0, 3,30.00,40.00,SummerDesignDay
8,13.706147375533054
10,53848073.51652004
891,15058537.296338633
2,1, 7,21, 0, 3,40.00,50.00,SummerDesignDay
8,13.682651961920304
10,53839998.01785416
891,466568.20165795288
2,1, 7,21, 0, 3,50.00,60.00,SummerDesignDay
8,13.659136670643687
10,53835618.574766058
891,15500136.66648434
2,1, 7,21, 0, 3, 0.00,60.00,SummerDesignDay
1125,24.87325609599394
1165,25.107052093786803
1205,25.188174373297377
1245,24.160269726599699
1285,24.977765176257035
1325,24.997404263133125
1365,23.772880774887068
1405,24.5017376171627
1445,23.998664359027999
1485,23.981860158519706
1525,22.179566162663236
1565,26.09934743540711
1605,24.96813787910067
1645,24.74172521067183
1685,24.797358337262567
1725,23.863738312983924
1765,25.384808015324013
1805,25.008643286628158
1845,25.181444545567066
1885,23.97696170053646
2,1, 7,21, 0, 4, 0.00,10.00,SummerDesignDay
8,13.63560137410855
10,53828001.1914278
891,12000.0
2,1, 7,21, 0, 4,10.00,20.00,SummerDesignDay
8,13.612040802606578
10,53823150.49002903
891,15483864.551269092
2,1, 7,21, 0, 4,20.00,30.00,SummerDesignDay
8,13.58846620506876
10,53816057.51622872
891,12000.0
2,1, 7,21, 0, 4,30.00,40.00,SummerDesignDay
8,13.56487178447336
10,53810730.86029724
891,15466923.170628997
2,1, 7,21, 0, 4,40.00,50.00,SummerDesignDay
8,13.541257354069103
10,53804148.77042723
891,12000.0
2,1, 7,21, 0, 4,50.00,60.00,SummerDesignDay
8,13.517617463812285
10,53798338.1441149
891,15449218.692216842
2,1, 7,21, 0, 4, 0.00,60.00,SummerDesignDay
1125,24.52329006283682
1165,24.899731081088935
1205,25.062184314882008
1245,23.889838525194845
1285,24.871970240548725
1325,24.83126233692644
1365,23.598820917866904
1405,24.249190328755974
1445,23.998605830228596
1485,23.752932013521244
1525,21.95363953760557
1565,25.868904024565599
1605,24.87484674533049
1645,24.65737506965621
1685,24.70324161833881
1725,23.663398205001284
1765,25.212968410952077
1805,24.857190789210109
1845,25.072818320639528
1885,23.78767267904672
2,1, 7,21, 0, 5, 0.00,10.00,SummerDesignDay
8,13.50185415824011
10,53792493.63663325
891,12000.0
2,1, 7,21, 0, 5,10.00,20.00,SummerDesignDay
8,13.486076034032447
10,53835975.254508499
891,15430663.899334664
2,1, 7,21, 0, 5,20.00,30.00,SummerDesignDay
8,13.470289340350983
10,53882822.68218561
891,12000.0
2,1, 7,21, 0, 5,30.00,40.00,SummerDesignDay
8,13.454493322631063
10,53942556.359655577
891,15411161.019805782
2,1, 7,21, 0, 5,40.00,50.00,SummerDesignDay
8,13.438688835118548
10,54016824.8636949
891,12000.0
2,1, 7,21, 0, 5,50.00,60.00,SummerDesignDay
8,13.422888173889437
10,54092961.92708058
891,15390599.584046543
2,1, 7,21, 0, 5, 0.00,60.00,SummerDesignDay
1125,24.255977343074748
1165,24.76319035204857
1205,24.93961411547221
1245,23.815610176380575
1285,24.83422824584552
1325,24.681389011090745
1365,23.436923304673824
1405,24.151164488868664
1445,23.998553661487326
1485,23.591104725500743
1525,21.74857597332681
1565,25.659700924937459
1605,24.787339791729676
1645,24.583324470541585
1685,24.62114970941624
1725,23.689336137447456
1765,25.06053178334915
1805,24.814410868187335
1845,24.97270540724958
1885,23.661938482402893
2,1, 7,21, 0, 6, 0.00,10.00,SummerDesignDay
8,13.438688835118548
10,54173002.61749239
891,3893483.3390447737
2,1, 7,21, 0, 6,10.00,20.00,SummerDesignDay
8,13.454493322631063
10,54362510.27017607
891,11529180.704944229
2,1, 7,21, 0, 6,20.00,30.00,SummerDesignDay
8,13.470289340350983
10,54545112.20620719
891,8755092.198219486
2,1, 7,21, 0, 6,30.00,40.00,SummerDesignDay
8,13.486076034032447
10,54722453.97445617
891,6716150.992684723
2,1, 7,21, 0, 6,40.00,50.00,SummerDesignDay
8,13.50185415824011
10,54903744.92084014
891,13183026.702696182
2,1, 7,21, 0, 6,50.00,60.00,SummerDesignDay
8,13.517617463812285
10,55070204.87011037
891,2329866.757562514
2,1, 7,21, 0, 6, 0.00,60.00,SummerDesignDay
1125,24.2492014769425
1165,24.75080026963063
1205,24.849041528068925
1245,24.19630550684323
1285,24.897768159868336
1325,24.59534233757125
1365,23.344943988992868
1405,24.083594154237507
1445,23.998423063521739
1485,23.697812784562755
1525,21.647064717029413
1565,25.571967279122864
1605,24.76196872963615
1645,24.573143336633163
1685,24.614125247626324
1725,24.469545912084198
1765,25.023763688824365
1805,25.180351438929607
1845,24.934515585677507
1885,23.805363304315408
2,1, 7,21, 0, 7, 0.00,10.00,SummerDesignDay
8,13.572736920571789
10,116417117.22539807
891,17006538.76138684
2,1, 7,21, 0, 7,10.00,20.00,SummerDesignDay
8,13.627748229152554
10,100947820.11605796
891,4002651.955273662
2,1, 7,21, 0, 7,20.00,30.00,SummerDesignDay
8,13.682651961920304
10,81071239.41860719
891,15504196.276439203
2,1, 7,21, 0, 7,30.00,40.00,SummerDesignDay
8,13.737448093244995
10,88000586.83091943
891,12000.0
2,1, 7,21, 0, 7,40.00,50.00,SummerDesignDay
8,13.792137011831216
10,84612037.68948385
891,15476497.470614847
2,1, 7,21, 0, 7,50.00,60.00,SummerDesignDay
8,13.846719282840333
10,84790739.6901373
891,12000.0
2,1, 7,21, 0, 7, 0.00,60.00,SummerDesignDay
1125,24.551777450255686
1165,24.712130253412739
1205,24.02099286152462
1245,23.988227567832543
1285,24.088926318711569
1325,24.610852753189659
1365,23.38780470923558
1405,24.03075005589837
1445,23.998717729747445
1485,24.098229430482446
1525,21.749410697346837
1565,24.056097756918758
1605,23.865289865258615
1645,23.774094927226078
1685,23.74473740742531
1725,23.278532039659756
1765,23.666030850628706
1805,24.2113150301972
1845,24.038503139725056
1885,22.20275980228223
2,1, 7,21, 0, 8, 0.00,10.00,SummerDesignDay
8,13.978831900527043
10,148628791.21161283
891,15755156.856078454
2,1, 7,21, 0, 8,10.00,20.00,SummerDesignDay
8,14.110321014287419
10,147635407.5804583
891,12000.0
2,1, 7,21, 0, 8,20.00,30.00,SummerDesignDay
8,14.241191509616986
10,149883231.4742226
891,15744981.542832796
2,1, 7,21, 0, 8,30.00,40.00,SummerDesignDay
8,14.371447531304272
10,152259299.67667265
891,7489547.917890928
2,1, 7,21, 0, 8,40.00,50.00,SummerDesignDay
8,14.501093766564925
10,153911230.3929173
891,8309075.370842133
2,1, 7,21, 0, 8,50.00,60.00,SummerDesignDay
8,14.630134792273804
10,155710402.58365575
891,15833746.86112225
2,1, 7,21, 0, 8, 0.00,60.00,SummerDesignDay
1125,25.48612766219227
1165,25.017254292787656
1205,23.9999237483518
1245,23.999915846372745
1285,23.99983335747886
1325,24.896326494593173
1365,23.88198438097741
1405,23.973545813376718
1445,23.99845144367451
1485,24.01637248009015
1525,22.58066614851781
1565,23.999873649384058
1605,23.820157636441896
1645,23.751799950332214
1685,23.76475312934156
1725,24.16469501541772
1765,23.653086974208237
1805,24.544390107289258
1845,23.985805093075915
1885,22.6889576682384
2,1, 7,21, 0, 9, 0.00,10.00,SummerDesignDay
8,14.773641492809972
10,303134461.4261604
891,14193225.59434587
2,1, 7,21, 0, 9,10.00,20.00,SummerDesignDay
8,14.91640948124148
10,309896635.6470214
891,15028489.776494913
2,1, 7,21, 0, 9,20.00,30.00,SummerDesignDay
8,15.05843890714102
10,312782080.20856538
891,15047605.761079794
2,1, 7,21, 0, 9,30.00,40.00,SummerDesignDay
8,15.199735893563798
10,316092685.4685856
891,17997607.38047647
2,1, 7,21, 0, 9,40.00,50.00,SummerDesignDay
8,15.340306256439395
10,318958826.6332812
891,20781359.055953139
2,1, 7,21, 0, 9,50.00,60.00,SummerDesignDay
8,15.48015101768072
10,321746936.50501379
891,20788736.63833064
2,1, 7,21, 0, 9, 0.00,60.00,SummerDesignDay
1125,27.432248804072559
1165,25.94546767156487
1205,23.9998830060328
1245,23.99979051449255
1285,23.999861652107169
1325,25.62624934412243
1365,23.999556769011084
1405,23.950478789842049
1445,23.99916852528222
1485,23.999825326352409
1525,23.909052943514828
1565,23.999840545930569
1605,24.211852715207404
1645,24.207105930463248
1685,24.222475641921226
1725,24.973080734902657
1765,23.783525533240593
1805,24.81806390310868
1845,24.374464453850164
1885,23.532712968710045
2,1, 7,21, 0,10, 0.00,10.00,SummerDesignDay
8,15.60467292907716
10,373108401.8195964
891,28494133.101272484
2,1, 7,21, 0,10,10.00,20.00,SummerDesignDay
8,15.72862731650033
10,376982509.21768108
891,29685964.510854667
2,1, 7,21, 0,10,20.00,30.00,SummerDesignDay
8,15.852017409284228
10,379778923.419896
891,29681153.530905885
2,1, 7,21, 0,10,30.00,40.00,SummerDesignDay
8,15.974848118364367
10,382409052.59067
891,29675545.152578694
2,1, 7,21, 0,10,40.00,50.00,SummerDesignDay
8,16.097123145563505
10,384927191.4150231
891,26287878.266931274
2,1, 7,21, 0,10,50.00,60.00,SummerDesignDay
8,16.218846351168599
10,387602908.3245239
891,26296730.95086016
2,1, 7,21, 0,10, 0.00,60.00,SummerDesignDay
1125,29.653090851225998
1165,26.962978577003736
1205,23.99985031725083
1245,23.99967785670209
1285,23.999893225976309
1325,26.502218824580824
1365,23.999439288058999
1405,23.99964010965145
1445,23.999099621531163
1485,23.99931371524507
1525,23.9994670598269
1565,23.999769413049447
1605,24.440175803785438
1645,24.498091271064799
1685,24.51823722537721
1725,25.528630465267299
1765,23.967448713308515
1805,24.92195579207677
1845,24.61421152418477
1885,24.311868310335126
2,1, 7,21, 0,11, 0.00,10.00,SummerDesignDay
8,16.325793027093189
10,393047852.35576996
891,31560958.46191237
2,1, 7,21, 0,11,10.00,20.00,SummerDesignDay
8,16.432322158488288
10,395952861.3402602
891,31976247.73270129
2,1, 7,21, 0,11,20.00,30.00,SummerDesignDay
8,16.538424180249178
10,398505245.53974297
891,49031668.42267215
2,1, 7,21, 0,11,30.00,40.00,SummerDesignDay
8,16.644108396469087
10,401005170.425288
891,32009423.297354685
2,1, 7,21, 0,11,40.00,50.00,SummerDesignDay
8,16.749376736593655
10,403472817.41832426
891,31987005.471892157
2,1, 7,21, 0,11,50.00,60.00,SummerDesignDay
8,16.854232613237156
10,405939450.1280255
891,44714613.5632459
2,1, 7,21, 0,11, 0.00,60.00,SummerDesignDay
1125,31.342770917972535
1165,27.704520435492726
1205,23.99976420760598
1245,23.999474972458548
1285,23.999925006480983
1325,27.349442275248739
1365,23.999086534887913
1405,23.999156602447756
1445,23.998663892951837
1485,23.998616157567338
1525,23.99917161237197
1565,23.999596587008555
1605,24.447705391088915
1645,24.5391034215566
1685,24.580112901383897
1725,25.532920428220718
1765,24.229274198603404
1805,24.750442540133166
1845,24.652180237176596
1885,24.83129474560457
2,1, 7,21, 0,12, 0.00,10.00,SummerDesignDay
8,16.92390823520069
10,411554284.15241846
891,34845862.44612222
2,1, 7,21, 0,12,10.00,20.00,SummerDesignDay
8,16.99340178950456
10,413230633.00486966
891,29811759.06266296
2,1, 7,21, 0,12,20.00,30.00,SummerDesignDay
8,17.06272006743463
10,415177633.19846066
891,29796505.74061841
2,1, 7,21, 0,12,30.00,40.00,SummerDesignDay
8,17.131853229172639
10,417098651.68727079
891,29779842.071067975
2,1, 7,21, 0,12,40.00,50.00,SummerDesignDay
8,17.200807172194087
10,419024244.82040628
891,32664128.706486394
2,1, 7,21, 0,12,50.00,60.00,SummerDesignDay
8,17.269582116758607
10,420957046.39160189
891,38962797.83306187
2,1, 7,21, 0,12, 0.00,60.00,SummerDesignDay
1125,32.67917622527448
1165,28.240090355859107
1205,23.999761621356745
1245,23.999570028456266
1285,24.0000311996211
1325,28.060907628823477
1365,23.998969560567088
1405,23.998731375355449
1445,23.998665500634194
1485,23.998339391335404
1525,23.999112186089936
1565,23.999558234414704
1605,24.386989441704544
1645,24.499491842153345
1685,24.551921192532168
1725,25.230434610543545
1765,24.488946794581378
1805,24.48633940380654
1845,24.641063025147476
1885,25.11550682393596
2,1, 7,21, 0,13, 0.00,10.00,SummerDesignDay
8,17.32447360221357
10,421363782.58717176
891,37420022.2413653
2,1, 7,21, 0,13,10.00,20.00,SummerDesignDay
8,17.379251291230806
10,423000015.91319265
891,30605350.277056386
2,1, 7,21, 0,13,20.00,30.00,SummerDesignDay
8,17.433921312061729
10,424552585.72417357
891,30587024.359983595
2,1, 7,21, 0,13,30.00,40.00,SummerDesignDay
8,17.488473222557489
10,426280513.07337686
891,30566202.136574817
2,1, 7,21, 0,13,40.00,50.00,SummerDesignDay
8,17.542913447755134
10,428007081.4625769
891,41354705.10333518
2,1, 7,21, 0,13,50.00,60.00,SummerDesignDay
8,17.59724609886134
10,429672198.39769098
891,38259704.10322296
2,1, 7,21, 0,13, 0.00,60.00,SummerDesignDay
1125,33.682085414547
1165,28.63748786149763
1205,23.99977367088353
1245,23.999623731959475
1285,24.000049127269237
1325,28.61729167334587
1365,23.999061127344566
1405,23.99836756589838
1445,23.998596247207805
1485,23.998305225855977
1525,23.999123390838265
1565,23.999605297622975
1605,24.24175807518179
1645,24.362512177626998
1685,24.418124200138466
1725,25.071666549825069
1765,24.648853788724506
1805,24.34090972552754
1845,24.562276827714844
1885,25.210869241771588
2,1, 7,21, 0,14, 0.00,10.00,SummerDesignDay
8,17.6311450462694
10,430563914.43289169
891,31264774.661677898
2,1, 7,21, 0,14,10.00,20.00,SummerDesignDay
8,17.665000449016245
10,432070876.0568435
891,31314095.245004547
2,1, 7,21, 0,14,20.00,30.00,SummerDesignDay
8,17.698812743128934
10,433670272.98132458
891,36550844.9711341
2,1, 7,21, 0,14,30.00,40.00,SummerDesignDay
8,17.732582050940107
10,435866491.69168147
891,43780166.52901889
2,1, 7,21, 0,14,40.00,50.00,SummerDesignDay
8,17.766307345121004
10,437878462.6499718
891,31336360.868921788
2,1, 7,21, 0,14,50.00,60.00,SummerDesignDay
8,17.79999023167558
10,440082422.2078855
891,31316137.311553617
2,1, 7,21, 0,14, 0.00,60.00,SummerDesignDay
1125,34.41213614578979
1165,28.978793712955356
1205,23.999782959826619
1245,24.006502479972736
1285,24.00542534442194
1325,29.010059660455999
1365,23.999157069249138
1405,23.998160900640909
1445,23.998596717511835
1485,23.998365658869067
1525,23.99910562539401
1565,23.999636172892438
1605,24.109463784150124
1645,24.240497144506646
1685,24.281996125274106
1725,24.83264639107044
1765,24.66506543247139
1805,24.211139046868099
1845,24.502482977838925
1885,25.074032508793708
2,1, 7,21, 0,15, 0.00,10.00,SummerDesignDay
8,17.79999023167558
10,442633213.8480196
891,35285985.157244328
2,1, 7,21, 0,15,10.00,20.00,SummerDesignDay
8,17.79999023167558
10,444375966.32161447
891,45042985.09471219
2,1, 7,21, 0,15,20.00,30.00,SummerDesignDay
8,17.79999023167558
10,446434797.5642371
891,31337457.02977935
2,1, 7,21, 0,15,30.00,40.00,SummerDesignDay
8,17.79999023167558
10,447902362.03823366
891,31318090.349031796
2,1, 7,21, 0,15,40.00,50.00,SummerDesignDay
8,17.79999023167558
10,449122437.2876499
891,34020853.499097097
2,1, 7,21, 0,15,50.00,60.00,SummerDesignDay
8,17.79999023167558
10,450000670.6867853
891,46306974.175596978
2,1, 7,21, 0,15, 0.00,60.00,SummerDesignDay
1125,35.15347534153964
1165,29.256332833125894
1205,23.99973815420867
1245,24.003235550558484
1285,24.05209613531844
1325,29.195090981012475
1365,23.99893700310764
1405,23.998203777408496
1445,23.99859588800722
1485,23.99847257045808
1525,23.998936596230938
1565,23.999459660651895
1605,23.93897330590933
1645,24.096387673857536
1685,24.092505517434664
1725,24.104385002812565
1765,24.353377057022354
1805,23.883741366952234
1845,24.39434884945385
1885,24.46302280617246
2,1, 7,21, 0,16, 0.00,10.00,SummerDesignDay
8,17.759562446305357
10,448394121.4883234
891,29979949.13088724
2,1, 7,21, 0,16,10.00,20.00,SummerDesignDay
8,17.71907809634183
10,447743984.8536041
891,29803630.78873945
2,1, 7,21, 0,16,20.00,30.00,SummerDesignDay
8,17.67853788661001
10,447106588.9518451
891,29787105.52328677
2,1, 7,21, 0,16,30.00,40.00,SummerDesignDay
8,17.63791796367351
10,446383860.6143152
891,29770204.451897667
2,1, 7,21, 0,16,40.00,50.00,SummerDesignDay
8,17.59724609886134
10,445605576.49198928
891,37879873.567261498
2,1, 7,21, 0,16,50.00,60.00,SummerDesignDay
8,17.55650676726033
10,444776248.67157527
891,39007859.575932729
2,1, 7,21, 0,16, 0.00,60.00,SummerDesignDay
1125,35.888530533669079
1165,29.388235665790586
1205,23.999657607765177
1245,23.999626237236027
1285,24.099653774241277
1325,29.14897165615005
1365,23.998686789265198
1405,23.998585510058118
1445,23.998599196387916
1485,23.998625184954688
1525,23.998775549096647
1565,24.07635183607267
1605,23.676811031506476
1645,23.843142017390389
1685,23.794095589307699
1725,23.062241109064165
1765,23.851685390771548
1805,23.45005681445656
1845,24.170499988091384
1885,23.535562421836308
2,1, 7,21, 0,17, 0.00,10.00,SummerDesignDay
8,17.50209486331892
10,438800997.008938
891,28266713.845509408
2,1, 7,21, 0,17,10.00,20.00,SummerDesignDay
8,17.447570789624618
10,437296629.14525547
891,25455778.502119416
2,1, 7,21, 0,17,20.00,30.00,SummerDesignDay
8,17.392929544208135
10,436110167.2997166
891,25449855.916676985
2,1, 7,21, 0,17,30.00,40.00,SummerDesignDay
8,17.33818013976614
10,434919395.11963477
891,25443685.724089147
2,1, 7,21, 0,17,40.00,50.00,SummerDesignDay
8,17.283317298559309
10,433695217.5559037
891,25437441.1705231
2,1, 7,21, 0,17,50.00,60.00,SummerDesignDay
8,17.22833552437677
10,432437755.63972356
891,25431129.679440846
2,1, 7,21, 0,17, 0.00,60.00,SummerDesignDay
1125,36.07126965189235
1165,29.374239241367623
1205,23.99959115059885
1245,23.99956578127045
1285,24.132071285396426
1325,28.970181412083094
1365,23.998589221524715
1405,23.999010858339188
1445,23.998598577234433
1485,23.999046565241174
1525,23.998773686112697
1565,24.41722772339216
1605,23.65937318311424
1645,23.79325955363048
1685,23.72319337302153
1725,22.36719286163788
1765,23.688530923248825
1805,23.332501192942649
1845,24.153176631869
1885,22.9054601595203
2,1, 7,21, 0,18, 0.00,10.00,SummerDesignDay
8,17.159453019160176
10,407177154.79542747
891,24005076.06847036
2,1, 7,21, 0,18,10.00,20.00,SummerDesignDay
8,17.090391773337136
10,405267897.1292747
891,21435448.154953407
2,1, 7,21, 0,18,20.00,30.00,SummerDesignDay
8,17.021151077964786
10,403601904.663694
891,22814237.42218193
2,1, 7,21, 0,18,30.00,40.00,SummerDesignDay
8,16.951729380464653
10,401941726.87988969
891,27528264.524885607
2,1, 7,21, 0,18,40.00,50.00,SummerDesignDay
8,16.882126503829249
10,400296974.2748086
891,32202437.250121267
2,1, 7,21, 0,18,50.00,60.00,SummerDesignDay
8,16.812341807494034
10,398329042.6616893
891,34121599.136814158
2,1, 7,21, 0,18, 0.00,60.00,SummerDesignDay
1125,35.48147723094597
1165,29.186435507579849
1205,23.999600865754048
1245,23.999676427001334
1285,24.105153954546528
1325,28.72479186742397
1365,23.998663242875215
1405,23.999170625823809
1445,23.998606855255344
1485,23.999513281085656
1525,23.998894659980257
1565,24.598100052793517
1605,23.585024448787264
1645,23.670676978831378
1685,23.584365525153005
1725,22.002665287857114
1765,23.52462493962805
1805,23.143964247727565
1845,24.05295422338671
1885,22.16753035725027
2,1, 7,21, 0,19, 0.00,10.00,SummerDesignDay
8,16.707321072823203
10,313177089.4269995
891,44094758.43507399
2,1, 7,21, 0,19,10.00,20.00,SummerDesignDay
8,16.601881826644556
10,310412506.86824187
891,48251329.07281259
2,1, 7,21, 0,19,20.00,30.00,SummerDesignDay
8,16.496030555252849
10,307831451.31625857
891,50739970.16248436
2,1, 7,21, 0,19,30.00,40.00,SummerDesignDay
8,16.389760181474104
10,305351093.5614928
891,52916141.95557177
2,1, 7,21, 0,19,40.00,50.00,SummerDesignDay
8,16.283067654262039
10,302510898.9390248
891,53429547.26676178
2,1, 7,21, 0,19,50.00,60.00,SummerDesignDay
8,16.17595057957811
10,300143378.60690698
891,52596880.84923239
2,1, 7,21, 0,19, 0.00,60.00,SummerDesignDay
1125,34.11705821123265
1165,28.627752619431335
1205,23.99971621208827
1245,23.99981379142314
1285,24.006514002825399
1325,28.202952513401816
1365,23.99926338131581
1405,23.99897726280972
1445,23.998621085831819
1485,23.9997196478438
1525,23.999415893741273
1565,24.422201160429244
1605,23.218403045665015
1645,23.240464530517984
1685,23.15032394725129
1725,22.000113739353869
1765,23.14376028673775
1805,22.718089431802487
1845,23.650473216107497
1885,21.999995805153146
2,1, 7,21, 0,20, 0.00,10.00,SummerDesignDay
8,16.097123145563505
10,251634567.15653266
891,58418207.116960648
2,1, 7,21, 0,20,10.00,20.00,SummerDesignDay
8,16.018070242471564
10,249846072.5375001
891,61082595.74329971
2,1, 7,21, 0,20,20.00,30.00,SummerDesignDay
8,15.938779752340516
10,247511380.5373426
891,62757486.982499238
2,1, 7,21, 0,20,30.00,40.00,SummerDesignDay
8,15.85926152575189
10,245526764.00290928
891,66881878.36124304
2,1, 7,21, 0,20,40.00,50.00,SummerDesignDay
8,15.779503718563929
10,241140409.64338539
891,66714211.450562018
2,1, 7,21, 0,20,50.00,60.00,SummerDesignDay
8,15.699515709672767
10,237739840.7537264
891,66069757.024611148
2,1, 7,21, 0,20, 0.00,60.00,SummerDesignDay
1125,32.200856977308159
1165,27.85748028494371
1205,23.999905793894159
1245,23.999940594903426
1285,23.999884465788126
1325,27.46331401597219
1365,23.99982319754095
1405,23.999125078812754
1445,23.999238247129573
1485,23.9998192234756
1525,23.99990460528471
1565,24.083827042252329
1605,22.875831248283374
1645,22.83647737954205
1685,22.747092025783006
1725,22.0001113208651
1765,22.80159140420392
1805,22.333853539622969
1845,23.269147655881544
1885,21.999959054464843
2,1, 7,21, 0,21, 0.00,10.00,SummerDesignDay
8,15.63389147320404
10,234146579.20938344
891,67993008.64978123
2,1, 7,21, 0,21,10.00,20.00,SummerDesignDay
8,15.56810827419793
10,230578220.04755859
891,66982863.27424314
2,1, 7,21, 0,21,20.00,30.00,SummerDesignDay
8,15.502170882753524
10,226813809.45945863
891,65358328.227852609
2,1, 7,21, 0,21,30.00,40.00,SummerDesignDay
8,15.436068032613852
10,223327576.53467099
891,63780755.40688881
2,1, 7,21, 0,21,40.00,50.00,SummerDesignDay
8,15.369804371206009
10,220227946.15318037
891,62503571.42352906
2,1, 7,21, 0,21,50.00,60.00,SummerDesignDay
8,15.303384603594449
10,217227551.9847063
891,61712132.341594997
2,1, 7,21, 0,21, 0.00,60.00,SummerDesignDay
1125,30.027478737880189
1165,27.278188544987065
1205,23.99994108729145
1245,23.999971434549584
1285,23.999918090408625
1325,26.8279947575424
1365,23.999893877307405
1405,23.99894966978445
1445,23.99926236720934
1485,23.999852382841316
1525,23.999955693811804
1565,23.99987916698193
1605,22.966731217484666
1645,22.87261405389378
1685,22.79191108855782
1725,22.00002402975402
1765,22.921597841717867
1805,22.422079535485428
1845,23.32096742451428
1885,22.000011981675184
2,1, 7,21, 0,22, 0.00,10.00,SummerDesignDay
8,15.236797685071274
10,100346150.00932235
891,23077451.998946046
2,1, 7,21, 0,22,10.00,20.00,SummerDesignDay
8,15.170047891787942
10,99354189.59773058
891,23383890.75456604
2,1, 7,21, 0,22,20.00,30.00,SummerDesignDay
8,15.103134826860483
10,98676590.4129006
891,25126339.200230063
2,1, 7,21, 0,22,30.00,40.00,SummerDesignDay
8,15.036063385178485
10,99483166.55916122