Program Version,EnergyPlus, Version 8.9.0-eba93e8e1b, YMD=2019.03.06 15:04
1,5,Environment Title[],Latitude[deg],Longitude[deg],Time Zone[],Elevation[m]
2,8,Day of Simulation[],Month[],Day of Month[],DST Indicator[1=yes 0=no],Hour[],StartMinute[],EndMinute[],DayType
3,5,Cumulative Day of Simulation[],Month[],Day of Month[],DST Indicator[1=yes 0=no],DayType  ! When Daily Report Variables Requested
4,2,Cumulative Days of Simulation[],Month[]  ! When Monthly Report Variables Requested
5,1,Cumulative Days of Simulation[] ! When Run Period Report Variables Requested
6,1,Calendar Year of Simulation[] ! When Annual Report Variables Requested
7,9,Environment,Site Outdoor Air Drybulb Temperature [C] !Monthly [Value,Min,Day,Hour,Minute,Max,Day,Hour,Minute]
8,1,Environment,Site Outdoor Air Wetbulb Temperature [C] !TimeStep
745,1,ALL_ST=WHOLEBUILDING_FL=STORY 1_SCH=B,Zone Air Temperature [C] !Hourly
746,7,ALL_ST=WHOLEBUILDING_FL=STORY 1_SCH=B,Zone Air Relative Humidity [%] !Daily [Value,Min,Hour,Minute,Max,Hour,Minute]
785,1,ALL_ST=WHOLEBUILDING_FL=STORY 1_SCH=B 1,Zone Air Temperature [C] !Hourly
786,7,ALL_ST=WHOLEBUILDING_FL=STORY 1_SCH=B 1,Zone Air Relative Humidity [%] !Daily [Value,Min,Hour,Minute,Max,Hour,Minute]
825,1,ALL_ST=WHOLEBUILDING_FL=STORY 1_SCH=B 2,Zone Air Temperature [C] !Hourly
826,7,ALL_ST=WHOLEBUILDING_FL=STORY 1_SCH=B 2,Zone Air Relative Humidity [%] !Daily [Value,Min,Hour,Minute,Max,Hour,Minute]
865,1,ALL_ST=WHOLEBUILDING_FL=STORY 1_SCH=B 3,Zone Air Temperature [C] !Hourly
866,7,ALL_ST=WHOLEBUILDING_FL=STORY 1_SCH=B 3,Zone Air Relative Humidity [%] !Daily [Value,Min,Hour,Minute,Max,Hour,Minute]
905,1,ALL_ST=WHOLEBUILDING_FL=STORY 1_SCH=F,Zone Air Temperature [C] !Hourly
906,7,ALL_ST=WHOLEBUILDING_FL=STORY 1_SCH=F,Zone Air Relative Humidity [%] !Daily [Value,Min,Hour,Minute,Max,Hour,Minute]
945,1,ALL_ST=WHOLEBUILDING_FL=STORY 2_SCH=A,Zone Air Temperature [C] !Hourly
946,7,ALL_ST=WHOLEBUILDING_FL=STORY 2_SCH=A,Zone Air Relative Humidity [%] !Daily [Value,Min,Hour,Minute,Max,Hour,Minute]
985,1,ALL_ST=WHOLEBUILDING_FL=STORY 2_SCH=B,Zone Air Temperature [C] !Hourly
986,7,ALL_ST=WHOLEBUILDING_FL=STORY 2_SCH=B,Zone Air Relative Humidity [%] !Daily [Value,Min,Hour,Minute,Max,Hour,Minute]
1025,1,ALL_ST=WHOLEBUILDING_FL=STORY 2_SCH=C,Zone Air Temperature [C] !Hourly
1026,7,ALL_ST=WHOLEBUILDING_FL=STORY 2_SCH=C,Zone Air Relative Humidity [%] !Daily [Value,Min,Hour,Minute,Max,Hour,Minute]
1065,1,ALL_ST=WHOLEBUILDING_FL=STORY 2_SCH=E,Zone Air Temperature [C] !Hourly
1066,7,ALL_ST=WHOLEBUILDING_FL=STORY 2_SCH=E,Zone Air Relative Humidity [%] !Daily [Value,Min,Hour,Minute,Max,Hour,Minute]
1105,1,DU_BT=DORMITORY_ST=WHOLEBUILDING_FL=STORY 2_SCHG,Zone Air Temperature [C] !Hourly
1106,7,DU_BT=DORMITORY_ST=WHOLEBUILDING_FL=STORY 2_SCHG,Zone Air Relative Humidity [%] !Daily [Value,Min,Hour,Minute,Max,Hour,Minute]
10,1,Electricity:Facility [J] !TimeStep
511,1,Gas:Facility [J] !TimeStep
End of Data Dictionary
1,FORT MCMURRAY AP ANN CLG .4% CONDNS DB=>MWB,  56.65,-111.22,  -7.00, 369.10
2,1, 7,21, 0, 1, 0.00,10.00,SummerDesignDay
8,14.218136923962174
10,94390619.95078543
511,67964480.85236608
2,1, 7,21, 0, 1,10.00,20.00,SummerDesignDay
8,14.171982153293495
10,92055194.48971252
511,66979407.475936029
2,1, 7,21, 0, 1,20.00,30.00,SummerDesignDay
8,14.125744780286427
10,91291794.38707415
511,66990314.02422563
2,1, 7,21, 0, 1,30.00,40.00,SummerDesignDay
8,14.079436086331978
10,90526069.91836234
511,66998337.79931574
2,1, 7,21, 0, 1,40.00,50.00,SummerDesignDay
8,14.033050387896898
10,89763505.40615176
511,67006156.504866119
2,1, 7,21, 0, 1,50.00,60.00,SummerDesignDay
8,13.986581233564835
10,89003327.65868478
511,67013919.937741909
2,1, 7,21, 0, 1, 0.00,60.00,SummerDesignDay
745,23.997463576413847
785,23.997507609885429
825,23.997845548970088
865,23.997848993419454
905,23.99715745192962
945,23.777019457842998
985,23.9991545594707
1025,23.38994267488755
1065,22.611050622680833
1105,23.99985466564979
2,1, 7,21, 0, 2, 0.00,10.00,SummerDesignDay
8,13.95555882260429
10,50313202.6728462
511,62964565.07888504
2,1, 7,21, 0, 2,10.00,20.00,SummerDesignDay
8,13.924507755336454
10,49798955.85825521
511,60333470.66062752
2,1, 7,21, 0, 2,20.00,30.00,SummerDesignDay
8,13.893416042989206
10,49724715.429134648
511,33497479.54372797
2,1, 7,21, 0, 2,30.00,40.00,SummerDesignDay
8,13.862289589689029
10,49652624.436345349
511,62514376.80763552
2,1, 7,21, 0, 2,40.00,50.00,SummerDesignDay
8,13.831134407608739
10,49580611.17482551
511,62546655.91384942
2,1, 7,21, 0, 2,50.00,60.00,SummerDesignDay
8,13.799938415548118
10,49508312.50692888
511,46888408.52279796
2,1, 7,21, 0, 2, 0.00,60.00,SummerDesignDay
745,23.763230477857808
785,23.90058169841596
825,23.840393591016868
865,24.12524567165109
905,23.99800205621354
945,23.432167479679057
985,23.664540471324398
1025,23.02457157852395
1065,22.227655984252026
1105,23.97359080547235
2,1, 7,21, 0, 3, 0.00,10.00,SummerDesignDay
8,13.776521671948676
10,22954240.16861437
511,13378265.337066479
2,1, 7,21, 0, 3,10.00,20.00,SummerDesignDay
8,13.753085235778466
10,22764992.679141579
511,27176877.933884924
2,1, 7,21, 0, 3,20.00,30.00,SummerDesignDay
8,13.729636002354969
10,22690812.314866395
511,895832.9295778709
2,1, 7,21, 0, 3,30.00,40.00,SummerDesignDay
8,13.706147375533054
10,22627440.958608826
511,749637.1710220997
2,1, 7,21, 0, 3,40.00,50.00,SummerDesignDay
8,13.682651961920304
10,22552309.24479682
511,26887161.738658605
2,1, 7,21, 0, 3,50.00,60.00,SummerDesignDay
8,13.659136670643687
10,22446578.784011619
511,12000.0
2,1, 7,21, 0, 3, 0.00,60.00,SummerDesignDay
745,22.968977383412395
785,23.154290457866968
825,23.11368368987151
865,23.462309566326799
905,23.99938568862326
945,23.136487263767454
985,22.695832072721616
1025,22.701241641043013
1065,21.899429683382185
1105,23.799378147053074
2,1, 7,21, 0, 4, 0.00,10.00,SummerDesignDay
8,13.63560137410855
10,21310338.240241469
511,26192047.144618446
2,1, 7,21, 0, 4,10.00,20.00,SummerDesignDay
8,13.612040802606578
10,21310338.240241469
511,12000.0
2,1, 7,21, 0, 4,20.00,30.00,SummerDesignDay
8,13.58846620506876
10,21310338.240241469
511,12000.0
2,1, 7,21, 0, 4,30.00,40.00,SummerDesignDay
8,13.56487178447336
10,21310338.240241469
511,26124399.017537547
2,1, 7,21, 0, 4,40.00,50.00,SummerDesignDay
8,13.541257354069103
10,21310338.240241469
511,12000.0
2,1, 7,21, 0, 4,50.00,60.00,SummerDesignDay
8,13.517617463812285
10,21310338.240241469
511,12000.0
2,1, 7,21, 0, 4, 0.00,60.00,SummerDesignDay
745,22.47705020813341
785,22.663851942878656
825,22.663780220130425
865,22.97527112378199
905,23.828910884382
945,22.869070262668175
985,21.92077451343034
1025,22.388754867293839
1065,21.58441584832997
1105,23.56512280075077
2,1, 7,21, 0, 5, 0.00,10.00,SummerDesignDay
8,13.50185415824011
10,21310338.240241469
511,26057474.377606226
2,1, 7,21, 0, 5,10.00,20.00,SummerDesignDay
8,13.486076034032447
10,21310338.240241469
511,12000.0
2,1, 7,21, 0, 5,20.00,30.00,SummerDesignDay
8,13.470289340350983
10,21310338.240241469
511,26270062.19287163
2,1, 7,21, 0, 5,30.00,40.00,SummerDesignDay
8,13.454493322631063
10,21310338.240241469
511,12000.0
2,1, 7,21, 0, 5,40.00,50.00,SummerDesignDay
8,13.438688835118548
10,21310338.240241469
511,12000.0
2,1, 7,21, 0, 5,50.00,60.00,SummerDesignDay
8,13.422888173889437
10,21447560.035072444
511,26245362.729408664
2,1, 7,21, 0, 5, 0.00,60.00,SummerDesignDay
745,22.191582731736678
785,22.378459407936636
825,22.404964741345965
865,22.671895868902039
905,23.59074302670788
945,22.788474511114147
985,21.559726430590833
1025,22.140332403751036
1065,21.33008665583466
1105,23.556261653446354
2,1, 7,21, 0, 6, 0.00,10.00,SummerDesignDay
8,13.438688835118548
10,21598141.896663418
511,12000.0
2,1, 7,21, 0, 6,10.00,20.00,SummerDesignDay
8,13.454493322631063
10,22886581.39480514
511,3064445.8741300159
2,1, 7,21, 0, 6,20.00,30.00,SummerDesignDay
8,13.470289340350983
10,22945635.482410179
511,23249635.34456133
2,1, 7,21, 0, 6,30.00,40.00,SummerDesignDay
8,13.486076034032447
10,23430478.36184825
511,12000.0
2,1, 7,21, 0, 6,40.00,50.00,SummerDesignDay
8,13.50185415824011
10,23815874.922606037
511,26348110.5858665
2,1, 7,21, 0, 6,50.00,60.00,SummerDesignDay
8,13.517617463812285
10,24172795.879339436
511,12000.0
2,1, 7,21, 0, 6, 0.00,60.00,SummerDesignDay
745,22.002287895309569
785,22.18823595988755
825,22.257423620348495
865,22.45752144352089
905,23.49878593959372
945,23.14447705562115
985,21.558553137780355
1025,22.170488226233009
1065,21.34392237272672
1105,23.99505064830397
2,1, 7,21, 0, 7, 0.00,10.00,SummerDesignDay
8,13.572736920571789
10,27453191.152167597
511,27172062.12822716
2,1, 7,21, 0, 7,10.00,20.00,SummerDesignDay
8,13.627748229152554
10,28014207.166790986
511,27293132.08917183
2,1, 7,21, 0, 7,20.00,30.00,SummerDesignDay
8,13.682651961920304
10,28371840.585829896
511,21921436.617938
2,1, 7,21, 0, 7,30.00,40.00,SummerDesignDay
8,13.737448093244995
10,28727011.120936194
511,5401225.619715598
2,1, 7,21, 0, 7,40.00,50.00,SummerDesignDay
8,13.792137011831216
10,29078473.639357918
511,27247175.60985588
2,1, 7,21, 0, 7,50.00,60.00,SummerDesignDay
8,13.846719282840333
10,29420514.761811936
511,27286416.37330379
2,1, 7,21, 0, 7, 0.00,60.00,SummerDesignDay
745,21.995106018148865
785,22.17792173752579
825,22.3267569132782
865,22.420247135197657
905,23.70065858756608
945,23.4879429242519
985,21.93597122962518
1025,22.545893529035486
1065,21.720705392044214
1105,23.99918413710938
2,1, 7,21, 0, 8, 0.00,10.00,SummerDesignDay
8,13.978831900527043
10,40378666.19493917
511,29405354.11294894
2,1, 7,21, 0, 8,10.00,20.00,SummerDesignDay
8,14.110321014287419
10,44070026.53128083
511,58699156.50215471
2,1, 7,21, 0, 8,20.00,30.00,SummerDesignDay
8,14.241191509616986
10,45467971.02732716
511,30312476.021612478
2,1, 7,21, 0, 8,30.00,40.00,SummerDesignDay
8,14.371447531304272
10,46309080.97115215
511,29686842.788485517
2,1, 7,21, 0, 8,40.00,50.00,SummerDesignDay
8,14.501093766564925
10,47466664.66790854
511,59307937.44682159
2,1, 7,21, 0, 8,50.00,60.00,SummerDesignDay
8,14.630134792273804
10,48507575.62840042
511,29654540.303966557
2,1, 7,21, 0, 8, 0.00,60.00,SummerDesignDay
745,22.294543182794816
785,22.468714170755587
825,22.713088462622907
865,22.68111150904754
905,23.98204138875342
945,23.988513131478915
985,22.883030928530919
1025,23.403524154704298
1065,22.658739328076846
1105,23.9977459275941
2,1, 7,21, 0, 9, 0.00,10.00,SummerDesignDay
8,14.773641492809972
10,78917734.10520643
511,61202270.915010388
2,1, 7,21, 0, 9,10.00,20.00,SummerDesignDay
8,14.91640948124148
10,84933585.9685462
511,33807963.4999843
2,1, 7,21, 0, 9,20.00,30.00,SummerDesignDay
8,15.05843890714102
10,91045403.79155152
511,58319915.88766571
2,1, 7,21, 0, 9,30.00,40.00,SummerDesignDay
8,15.199735893563798
10,91198095.75308727
511,61443353.84178245
2,1, 7,21, 0, 9,40.00,50.00,SummerDesignDay
8,15.340306256439395
10,94471282.2044325
511,30707981.726927338
2,1, 7,21, 0, 9,50.00,60.00,SummerDesignDay
8,15.48015101768072
10,97065354.61785104
511,61403540.33901708
2,1, 7,21, 0, 9, 0.00,60.00,SummerDesignDay
745,22.9419437358619
785,23.103192974796284
825,23.422745604137345
865,23.281672839534094
905,23.99809869819862
945,23.999187214735554
985,23.93463635713358
1025,23.998724211483034
1065,23.92244656061734
1105,23.99709732753712
2,1, 7,21, 0,10, 0.00,10.00,SummerDesignDay
8,15.60467292907716
10,139038756.596925
511,89245069.25849167
2,1, 7,21, 0,10,10.00,20.00,SummerDesignDay
8,15.72862731650033
10,144981577.71304465
511,104845294.99196038
2,1, 7,21, 0,10,20.00,30.00,SummerDesignDay
8,15.852017409284228
10,150350663.95708893
511,104240842.4039317
2,1, 7,21, 0,10,30.00,40.00,SummerDesignDay
8,15.974848118364367
10,155387865.2692775
511,92353671.81483074
2,1, 7,21, 0,10,40.00,50.00,SummerDesignDay
8,16.097123145563505
10,157467592.84322585
511,116649311.11037028
2,1, 7,21, 0,10,50.00,60.00,SummerDesignDay
8,16.218846351168599
10,160762933.83028908
511,79952013.08279135
2,1, 7,21, 0,10, 0.00,60.00,SummerDesignDay
745,23.888543509699845
785,23.935016092286799
825,23.996464056095488
865,23.975838459474603
905,23.997990617601614
945,23.99860638984302
985,23.999344378287135
1025,23.999429314766446
1065,23.999358717196598
1105,23.997375313304187
2,1, 7,21, 0,11, 0.00,10.00,SummerDesignDay
8,16.325793027093189
10,185521675.8858801
511,115906490.5671196
2,1, 7,21, 0,11,10.00,20.00,SummerDesignDay
8,16.432322158488288
10,188348537.85417367
511,77085336.10714612
2,1, 7,21, 0,11,20.00,30.00,SummerDesignDay
8,16.538424180249178
10,190958285.68310452
511,115677450.45634023
2,1, 7,21, 0,11,30.00,40.00,SummerDesignDay
8,16.644108396469087
10,193578832.48770423
511,77094255.11712697
2,1, 7,21, 0,11,40.00,50.00,SummerDesignDay
8,16.749376736593655
10,196093534.05710215
511,115672323.27046775
2,1, 7,21, 0,11,50.00,60.00,SummerDesignDay
8,16.854232613237156
10,198526394.41211037
511,77103092.86028812
2,1, 7,21, 0,11, 0.00,60.00,SummerDesignDay
745,23.999036446270254
785,23.999019737878837
825,23.999013000044316
865,23.999221736144916
905,23.998109572969566
945,23.9981258648433
985,23.998529526515229
1025,23.99889180244819
1065,23.998813577252347
1105,23.99783410614746
2,1, 7,21, 0,12, 0.00,10.00,SummerDesignDay
8,16.92390823520069
10,216941676.70210383
511,73730411.62572801
2,1, 7,21, 0,12,10.00,20.00,SummerDesignDay
8,16.99340178950456
10,217947995.7661692
511,65243877.39762721
2,1, 7,21, 0,12,20.00,30.00,SummerDesignDay
8,17.06272006743463
10,219725279.93934027
511,65209406.28513269
2,1, 7,21, 0,12,30.00,40.00,SummerDesignDay
8,17.131853229172639
10,221425454.26850293
511,65201911.508335869
2,1, 7,21, 0,12,40.00,50.00,SummerDesignDay
8,17.200807172194087
10,223061056.9073221
511,65195924.02175709
2,1, 7,21, 0,12,50.00,60.00,SummerDesignDay
8,17.269582116758607
10,224636773.5980023
511,65189867.72691938
2,1, 7,21, 0,12, 0.00,60.00,SummerDesignDay
745,23.99840429052747
785,23.998380277599027
825,23.99846231758822
865,23.998701409601407
905,23.998400589620535
945,23.997841202513056
985,23.99804120664417
1025,23.99850889447738
1065,23.998633320404268
1105,23.998481404719397
2,1, 7,21, 0,13, 0.00,10.00,SummerDesignDay
8,17.32447360221357
10,228209887.0778391
511,92462983.26915543
2,1, 7,21, 0,13,10.00,20.00,SummerDesignDay
8,17.379251291230806
10,229871067.43786756
511,77322637.71492487
2,1, 7,21, 0,13,20.00,30.00,SummerDesignDay
8,17.433921312061729
10,231156894.25605024
511,69307505.79015213
2,1, 7,21, 0,13,30.00,40.00,SummerDesignDay
8,17.488473222557489
10,232404667.70963154
511,69350054.9540313
2,1, 7,21, 0,13,40.00,50.00,SummerDesignDay
8,17.542913447755134
10,233615399.07602407
511,71565158.24916913
2,1, 7,21, 0,13,50.00,60.00,SummerDesignDay
8,17.59724609886134
10,234784479.66205929
511,95117254.43760094
2,1, 7,21, 0,13, 0.00,60.00,SummerDesignDay
745,23.997668917498488
785,23.99768871636427
825,23.99773127989273
865,23.998104568963489
905,23.998635398181507
945,23.998091073094803
985,23.99749271270686
1025,23.997937682785304
1065,23.99855220423382
1105,23.9988458489136
2,1, 7,21, 0,14, 0.00,10.00,SummerDesignDay
8,17.6311450462694
10,234731723.08915455
511,80766107.13190305
2,1, 7,21, 0,14,10.00,20.00,SummerDesignDay
8,17.665000449016245
10,235869302.29900549
511,82252529.47097387
2,1, 7,21, 0,14,20.00,30.00,SummerDesignDay
8,17.698812743128934
10,236569004.97988517
511,103111608.18752335
2,1, 7,21, 0,14,30.00,40.00,SummerDesignDay
8,17.732582050940107
10,237270109.77453665
511,74126802.15220455
2,1, 7,21, 0,14,40.00,50.00,SummerDesignDay
8,17.766307345121004
10,237945618.13967142
511,111139724.42366629
2,1, 7,21, 0,14,50.00,60.00,SummerDesignDay
8,17.79999023167558
10,238600619.83419655
511,74202631.60069731
2,1, 7,21, 0,14, 0.00,60.00,SummerDesignDay
745,23.996989576258213
785,23.99703167586001
825,23.997067610458676
865,23.997603376710104
905,23.99863903868218
945,23.99830405485514
985,23.997029775020839
1025,23.997562241830854
1065,23.99842542824064
1105,23.998966391067119
2,1, 7,21, 0,15, 0.00,10.00,SummerDesignDay
8,17.79999023167558
10,236377690.9565318
511,90266706.51483135
2,1, 7,21, 0,15,10.00,20.00,SummerDesignDay
8,17.79999023167558
10,236325093.99024118
511,94322691.44084315
2,1, 7,21, 0,15,20.00,30.00,SummerDesignDay
8,17.79999023167558
10,236320591.02184464
511,73818733.99481558
2,1, 7,21, 0,15,30.00,40.00,SummerDesignDay
8,17.79999023167558
10,236239372.12567983
511,110761890.79145141
2,1, 7,21, 0,15,40.00,50.00,SummerDesignDay
8,17.79999023167558
10,236104443.40186347
511,73770141.42427196
2,1, 7,21, 0,15,50.00,60.00,SummerDesignDay
8,17.79999023167558
10,235897252.847531
511,92796073.14252563
2,1, 7,21, 0,15, 0.00,60.00,SummerDesignDay
745,23.997158095002747
785,23.997123619634669
825,23.997268077910026
865,23.997752517596866
905,23.99855835018042
945,23.99806206574766
985,23.997116815486849
1025,23.99763423542653
1065,23.99858029530073
1105,23.998955490424135
2,1, 7,21, 0,16, 0.00,10.00,SummerDesignDay
8,17.759562446305357
10,232775229.61006517
511,85410186.60278008
2,1, 7,21, 0,16,10.00,20.00,SummerDesignDay
8,17.71907809634183
10,231259522.18212659
511,68128794.60129388
2,1, 7,21, 0,16,20.00,30.00,SummerDesignDay
8,17.67853788661001
10,230142796.37381915
511,68149387.22288104
2,1, 7,21, 0,16,30.00,40.00,SummerDesignDay
8,17.63791796367351
10,228923336.94986106
511,68172841.04057715
2,1, 7,21, 0,16,40.00,50.00,SummerDesignDay
8,17.59724609886134
10,227628698.11487896
511,68196189.75681316
2,1, 7,21, 0,16,50.00,60.00,SummerDesignDay
8,17.55650676726033
10,226251681.70517398
511,68219316.68011281
2,1, 7,21, 0,16, 0.00,60.00,SummerDesignDay
745,23.997938839554935
785,23.997853928412594
825,23.998054990851803
865,23.998362507659839
905,23.99866045640778
945,23.99794906620606
985,23.99780737983063
1025,23.99785846479963
1065,23.99849680441359
1105,23.998737137071218
2,1, 7,21, 0,17, 0.00,10.00,SummerDesignDay
8,17.50209486331892
10,225133970.32625083
511,65280966.26106149
2,1, 7,21, 0,17,10.00,20.00,SummerDesignDay
8,17.447570789624618
10,223152620.30430878
511,64959953.945584397
2,1, 7,21, 0,17,20.00,30.00,SummerDesignDay
8,17.392929544208135
10,221383672.0952303
511,64958038.0028437
2,1, 7,21, 0,17,30.00,40.00,SummerDesignDay
8,17.33818013976614
10,219537308.927276
511,64957747.809001367
2,1, 7,21, 0,17,40.00,50.00,SummerDesignDay
8,17.283317298559309
10,217634977.93859578
511,64957469.07608491
2,1, 7,21, 0,17,50.00,60.00,SummerDesignDay
8,17.22833552437677
10,215688844.03463424
511,64957126.200195778
2,1, 7,21, 0,17, 0.00,60.00,SummerDesignDay
745,23.998529477954408
785,23.9984409400418
825,23.998639260499876
865,23.99872627960548
905,23.998687358586566
945,23.99815086991843
985,23.99833567574466
1025,23.998038596424423
1065,23.99853102340569
1105,23.998644718025888
2,1, 7,21, 0,18, 0.00,10.00,SummerDesignDay
8,17.159453019160176
10,211752510.18284036
511,64453985.67709084
2,1, 7,21, 0,18,10.00,20.00,SummerDesignDay
8,17.090391773337136
10,209522462.4389612
511,64401712.69560703
2,1, 7,21, 0,18,20.00,30.00,SummerDesignDay
8,17.021151077964786
10,207344583.53725694
511,62052563.67281344
2,1, 7,21, 0,18,30.00,40.00,SummerDesignDay
8,16.951729380464653
10,205193927.12874747
511,47183126.251994539
2,1, 7,21, 0,18,40.00,50.00,SummerDesignDay
8,16.882126503829249
10,203069038.1890933
511,51749220.629760298
2,1, 7,21, 0,18,50.00,60.00,SummerDesignDay
8,16.812341807494034
10,200975872.00017715
511,64387979.044116009
2,1, 7,21, 0,18, 0.00,60.00,SummerDesignDay
745,23.998579050638488
785,23.998506025816086
825,23.99868905795419
865,23.998755357126485
905,23.99856116570322
945,23.99870209654405
985,23.99857979996504
1025,23.998462877548918
1065,23.998838536668314
1105,23.99874956255519
2,1, 7,21, 0,19, 0.00,10.00,SummerDesignDay
8,16.707321072823203
10,182269830.5106567
511,65643194.343819778
2,1, 7,21, 0,19,10.00,20.00,SummerDesignDay
8,16.601881826644556
10,179604802.7925939
511,65788575.70013976
2,1, 7,21, 0,19,20.00,30.00,SummerDesignDay
8,16.496030555252849
10,177138042.97500585
511,65788282.415869887
2,1, 7,21, 0,19,30.00,40.00,SummerDesignDay
8,16.389760181474104
10,174729436.25710748
511,65787449.63105263
2,1, 7,21, 0,19,40.00,50.00,SummerDesignDay
8,16.283067654262039
10,172390370.95788739
511,65786597.55760873
2,1, 7,21, 0,19,50.00,60.00,SummerDesignDay
8,16.17595057957811
10,170101680.19026564
511,65785744.956436719
2,1, 7,21, 0,19, 0.00,60.00,SummerDesignDay
745,23.997958458785236
785,23.997927812207537
825,23.99811510508742
865,23.998189278922927
905,23.998511315898687
945,23.999447270054799
985,23.998363546832484
1025,23.999005659677825
1065,23.999642485731518
1105,23.99862119692854
2,1, 7,21, 0,20, 0.00,10.00,SummerDesignDay
8,16.097123145563505
10,161096242.143488
511,67137804.74422463
2,1, 7,21, 0,20,10.00,20.00,SummerDesignDay
8,16.018070242471564
10,159919253.40154434
511,67302457.60772023
2,1, 7,21, 0,20,20.00,30.00,SummerDesignDay
8,15.938779752340516
10,158318902.97804985
511,67311862.53312148
2,1, 7,21, 0,20,30.00,40.00,SummerDesignDay
8,15.85926152575189
10,156953265.41610084
511,76286352.32268548
2,1, 7,21, 0,20,40.00,50.00,SummerDesignDay
8,15.779503718563929
10,155250987.79440088
511,78404856.7131337
2,1, 7,21, 0,20,50.00,60.00,SummerDesignDay
8,15.699515709672767
10,153636288.8364385
511,78336407.02900924
2,1, 7,21, 0,20, 0.00,60.00,SummerDesignDay
745,23.997188630591123
785,23.997185196316747
825,23.997395846337697
865,23.997468439365674
905,23.998121605963378
945,23.999835032007299
985,23.998295820052375
1025,23.99964769554482
1065,24.905320991318619
1105,23.99880375687302
2,1, 7,21, 0,21, 0.00,10.00,SummerDesignDay
8,15.63389147320404
10,152370720.23128275
511,80552411.82714555
2,1, 7,21, 0,21,10.00,20.00,SummerDesignDay
8,15.56810827419793
10,151845549.90215297
511,118672457.61590159
2,1, 7,21, 0,21,20.00,30.00,SummerDesignDay
8,15.502170882753524
10,150286743.6381535
511,79089223.88649243
2,1, 7,21, 0,21,30.00,40.00,SummerDesignDay
8,15.436068032613852
10,148741989.72409348
511,118654962.67218381
2,1, 7,21, 0,21,40.00,50.00,SummerDesignDay
8,15.369804371206009
10,147308341.60053677
511,93744522.39421369
2,1, 7,21, 0,21,50.00,60.00,SummerDesignDay
8,15.303384603594449
10,145713860.3342584
511,103992496.16598322
2,1, 7,21, 0,21, 0.00,60.00,SummerDesignDay
745,23.99587892713517
785,23.995928174800054
825,23.996263176256304
865,23.996359376627117
905,24.00602683873362
945,23.99989271344677
985,23.998150442868139
1025,23.99973099509151
1065,24.75160821439886
1105,23.99900011431438
2,1, 7,21, 0,22, 0.00,10.00,SummerDesignDay
8,15.236797685071274
10,129114875.53216057
511,98805847.85961622
2,1, 7,21, 0,22,10.00,20.00,SummerDesignDay
8,15.170047891787942
10,128595823.32691862
511,92747531.46888419
2,1, 7,21, 0,22,20.00,30.00,SummerDesignDay
8,15.103134826860483
10,127638678.1278936
511,97609518.7662888
2,1, 7,21, 0,22,30.00,40.00,SummerDesignDay
8,15.036063385178485
10,126676156.891774
511,93618652.96785368
2,1, 7,21, 0,22,40.00,50.00,SummerDesignDay
8,14.968821767219835
10,125953917.56870219
511,96737397.11845063
2,1, 7,21, 0,22,50.00,60.00,SummerDesignDay
8,14.90141525878635
10,125203565.67019773
511,94490680.78854916
2,1, 7,21, 0,22, 0.00,60.00,SummerDesignDay
745,23.995259906646877
785,23.995361819128619
825,23.995786240766369
865,23.995915949295875
905,24.059505463328205
945,24.459839164134409
985,23.998230121715748
1025,24.29321786406227
1065,24.088685389351129
1105,23.9993434790308
2,1, 7,21, 0,23, 0.00,10.00,SummerDesignDay
8,14.848873673278373
10,119159241.57095279
511,108673176.20313719
2,1, 7,21, 0,23,10.00,20.00,SummerDesignDay
8,14.796237168136719
10,118756540.64157315
511,90575939.69329973
2,1, 7,21, 0,23,20.00,30.00,SummerDesignDay
8,14.743494321455645
10,118098001.86968574
511,119861438.89257369
2,1, 7,21, 0,23,30.00,40.00,SummerDesignDay
8,14.690649975253665
10,117296222.77548477
511,83408964.19646909
2,1, 7,21, 0,23,40.00,50.00,SummerDesignDay
8,14.637704281233117
10,116674512.8816375
511,116314371.64468505
2,1, 7,21, 0,23,50.00,60.00,SummerDesignDay
8,14.584656914839757
10,115974305.24226462
511,102387298.65720156
2,1, 7,21, 0,23, 0.00,60.00,SummerDesignDay
745,23.995908195846935
785,23.996005380548174
825,23.996431153081063
865,23.996516011527239
905,24.007928010323018
945,24.562808587653888
985,23.998522088413904
1025,24.154658151158306
1065,23.51701379754004
1105,23.99954376709123
2,1, 7,21, 0,24, 0.00,10.00,SummerDesignDay
8,14.531507212058875
10,107790563.47441805
511,96061027.80879168
2,1, 7,21, 0,24,10.00,20.00,SummerDesignDay
8,14.47825496413355
10,106842886.50909642
511,114175734.53630178
2,1, 7,21, 0,24,20.00,30.00,SummerDesignDay
8,14.4249000133173
10,106067869.89884362
511,82661290.29294193
2,1, 7,21, 0,24,30.00,40.00,SummerDesignDay
8,14.371447531304272
10,105312321.9495413
511,118123706.4749102
2,1, 7,21, 0,24,40.00,50.00,SummerDesignDay
8,14.31788619902223
10,104543490.095419
511,78853819.79332781
2,1, 7,21, 0,24,50.00,60.00,SummerDesignDay
8,14.264220970176066
10,103774140.32230842
511,117982741.24484332
2,1, 7,21, 0,24, 0.00,60.00,SummerDesignDay
745,23.996637922613293
785,23.996711219220076
825,23.997135254034317
865,23.997175748368507
905,23.996144464177474
945,24.19430398418966
985,23.998821930392365
1025,23.786099303435646
1065,23.048545382816106
1105,23.999702851711246
3,1, 7,21, 0,SummerDesignDay
746,52.46533083111769,46.98166412280576,10,10,57.0990267562867,14,60
786,52.01037387096108,46.5563609094175,10,10,56.896542371821137,14,60
826,51.21744321386254,45.6607051464171,10,10,55.97696362394121,14,60
866,50.565521605376627,45.99925994329095,10,10,55.24759815074797,14,60
906,56.79736388696933,52.814872449078269,20,10,60.40715477886418,10,50
946,46.09627641190343,43.55932015955787,22,40,49.26687261941532, 5,20
986,49.7084907282048,44.316301156848179,10,10,53.68025166651205, 3,20
1026,46.914985088414827,42.79135111599924,10,60,50.93843080452556, 5,60
1066,47.864573947780908,42.21357956015621,20,40,53.50339776380761, 6,10
1106,50.5142442017179,45.038251561254678,14,40,55.903997816036838,20,10
4,1, 7
7,22.2505,16.5,21, 5,60,28.9,21,14,60
1,FORT MCMURRAY AP ANN HTG 99.6% CONDNS DB,  56.65,-111.22,  -7.00, 369.10
2,1, 1,21, 0, 1, 0.00,10.00,WinterDesignDay
8,-36.2
10,79071223.66224288
511,1094616850.297397
2,1, 1,21, 0, 1,10.00,20.00,WinterDesignDay
8,-36.2
10,79071207.24137274
511,1098749494.800413
2,1, 1,21, 0, 1,20.00,30.00,WinterDesignDay
8,-36.2
10,79071202.41053315
511,1125054257.5943008
2,1, 1,21, 0, 1,30.00,40.00,WinterDesignDay
8,-36.2
10,79791223.71196978
511,1108900657.8602703
2,1, 1,21, 0, 1,40.00,50.00,WinterDesignDay
8,-36.2
10,79071192.50551453
511,1099588961.3865524
2,1, 1,21, 0, 1,50.00,60.00,WinterDesignDay
8,-36.2
10,79071188.52060652
511,1108113546.6282159
2,1, 1,21, 0, 1, 0.00,60.00,WinterDesignDay
745,22.000000873094309
785,21.999998867343974
825,21.999999638872905
865,21.999999260355918
905,22.000000552682143
945,18.00009906618152
985,22.00089948194949
1025,18.000061782687465
1065,18.00001397332984
1105,22.000907431728753
2,1, 1,21, 0, 2, 0.00,10.00,WinterDesignDay
8,-36.2
10,48936386.37121498
511,1047172236.4724068
2,1, 1,21, 0, 2,10.00,20.00,WinterDesignDay
8,-36.2
10,48936380.83988187
511,1068465726.972847
2,1, 1,21, 0, 2,20.00,30.00,WinterDesignDay
8,-36.2
10,48936379.62514336
511,1084179866.6219848
2,1, 1,21, 0, 2,30.00,40.00,WinterDesignDay
8,-36.2
10,48936377.79007155
511,1091933806.4778167
2,1, 1,21, 0, 2,40.00,50.00,WinterDesignDay
8,-36.2
10,48936375.90601025
511,1095704469.6824437
2,1, 1,21, 0, 2,50.00,60.00,WinterDesignDay
8,-36.2
10,48936374.27462055
511,1096533599.6345206
2,1, 1,21, 0, 2, 0.00,60.00,WinterDesignDay
745,22.000001164158666
785,22.000000566587678
825,22.000000875341585
865,22.000002787690993
905,20.583141609049745
945,18.000043293890735
985,22.000489457574294
1025,18.000024132844957
1065,18.000006677681499
1105,18.423334335643305
2,1, 1,21, 0, 3, 0.00,10.00,WinterDesignDay
8,-36.2
10,22446578.784011619
511,922116799.5424335
2,1, 1,21, 0, 3,10.00,20.00,WinterDesignDay
8,-36.2
10,22446578.784011619
511,917979801.9578992
2,1, 1,21, 0, 3,20.00,30.00,WinterDesignDay
8,-36.2
10,22446583.68614965
511,959672462.7568343
2,1, 1,21, 0, 3,30.00,40.00,WinterDesignDay
8,-36.2
10,22446578.784011619
511,940322949.8531442
2,1, 1,21, 0, 3,40.00,50.00,WinterDesignDay
8,-36.2
10,22446578.784011619
511,968852988.2112721
2,1, 1,21, 0, 3,50.00,60.00,WinterDesignDay
8,-36.2
10,22446578.784011619
511,943378408.8709155
2,1, 1,21, 0, 3, 0.00,60.00,WinterDesignDay
745,19.62496827951603
785,19.49029673602139
825,19.671947632930477
865,19.58329119629788
905,19.45621845467341
945,18.000029612388855
985,18.299660857060279
1025,18.000015478359953
1065,18.000005700448737
1105,18.000167699345864
2,1, 1,21, 0, 4, 0.00,10.00,WinterDesignDay
8,-36.2
10,21310338.240241469
511,970708059.85018
2,1, 1,21, 0, 4,10.00,20.00,WinterDesignDay
8,-36.2
10,21310347.112769665
511,945922454.3166198
2,1, 1,21, 0, 4,20.00,30.00,WinterDesignDay
8,-36.2
10,21310344.793784813
511,974495895.0328708
2,1, 1,21, 0, 4,30.00,40.00,WinterDesignDay
8,-36.2
10,21310352.717226276
511,949149862.2444911
2,1, 1,21, 0, 4,40.00,50.00,WinterDesignDay
8,-36.2
10,21310349.747097684
511,966034090.8340081
2,1, 1,21, 0, 4,50.00,60.00,WinterDesignDay
8,-36.2
10,21310356.339127475
511,965010523.9529888
2,1, 1,21, 0, 4, 0.00,60.00,WinterDesignDay
745,18.07258778093873
785,18.016596956824963
825,18.143789032859389
865,18.13548552549268
905,19.00511814029534
945,18.00005399150876
985,18.000214854618667
1025,18.000028238821828
1065,18.00001480399092
1105,18.000364549782828
2,1, 1,21, 0, 5, 0.00,10.00,WinterDesignDay
8,-36.2
10,21310353.344258854
511,955761585.8963399
2,1, 1,21, 0, 5,10.00,20.00,WinterDesignDay
8,-36.2
10,21310351.365586964
511,983326524.6874511
2,1, 1,21, 0, 5,20.00,30.00,WinterDesignDay
8,-36.2
10,21310349.68668314
511,958813650.7684709
2,1, 1,21, 0, 5,30.00,40.00,WinterDesignDay
8,-36.2
10,21310348.186563646
511,986765983.5011512
2,1, 1,21, 0, 5,40.00,50.00,WinterDesignDay
8,-36.2
10,21310347.156920289
511,961905523.8815646
2,1, 1,21, 0, 5,50.00,60.00,WinterDesignDay
8,-36.2
10,21310346.2160665
511,963335725.3618975
2,1, 1,21, 0, 5, 0.00,60.00,WinterDesignDay
745,17.999999386650356