Program Version,EnergyPlus, Version 8.9.0-eba93e8e1b, YMD=2019.03.26 20:20
1,5,Environment Title[],Latitude[deg],Longitude[deg],Time Zone[],Elevation[m]
2,8,Day of Simulation[],Month[],Day of Month[],DST Indicator[1=yes 0=no],Hour[],StartMinute[],EndMinute[],DayType
3,5,Cumulative Day of Simulation[],Month[],Day of Month[],DST Indicator[1=yes 0=no],DayType  ! When Daily Report Variables Requested
4,2,Cumulative Days of Simulation[],Month[]  ! When Monthly Report Variables Requested
5,1,Cumulative Days of Simulation[] ! When Run Period Report Variables Requested
6,1,Calendar Year of Simulation[] ! When Annual Report Variables Requested
7,9,Environment,Site Outdoor Air Drybulb Temperature [C] !Monthly [Value,Min,Day,Hour,Minute,Max,Day,Hour,Minute]
8,1,Environment,Site Outdoor Air Wetbulb Temperature [C] !TimeStep
1112,1,SP-MANUFACTURING FACILITY EQUIPMENT ROOM-SPACE FUNCTION SYS-3 FLR-4 SCH-A HPLCMT-SOUTH ZN,Zone Air Temperature [C] !Hourly
1113,7,SP-MANUFACTURING FACILITY EQUIPMENT ROOM-SPACE FUNCTION SYS-3 FLR-4 SCH-A HPLCMT-SOUTH ZN,Zone Air Relative Humidity [%] !Daily [Value,Min,Hour,Minute,Max,Hour,Minute]
1152,1,SP-MANUFACTURING FACILITY EXTRA HIGH BAY AREA (> 15 M FLOOR-TO-CEILING HEIGHT)-SPACE FUNCTION SYS-3 FLR-4 SCH-A HPLCMT-NORTH ZN,Zone Air Temperature [C] !Hourly
1153,7,SP-MANUFACTURING FACILITY EXTRA HIGH BAY AREA (> 15 M FLOOR-TO-CEILING HEIGHT)-SPACE FUNCTION SYS-3 FLR-4 SCH-A HPLCMT-NORTH ZN,Zone Air Relative Humidity [%] !Daily [Value,Min,Hour,Minute,Max,Hour,Minute]
1192,1,SP-MANUFACTURING FACILITY HIGH BAY AREA (7.5 TO 15 M FLOOR-TO-CEILING HEIGHT)-SPACE FUNCTION SYS-3 FLR-3 SCH-A HPLCMT-SOUTH ZN,Zone Air Temperature [C] !Hourly
1193,7,SP-MANUFACTURING FACILITY HIGH BAY AREA (7.5 TO 15 M FLOOR-TO-CEILING HEIGHT)-SPACE FUNCTION SYS-3 FLR-3 SCH-A HPLCMT-SOUTH ZN,Zone Air Relative Humidity [%] !Daily [Value,Min,Hour,Minute,Max,Hour,Minute]
1232,1,SP-MANUFACTURING FACILITY LOW BAY AREA (< 7.5 M FLOOR-TO-CEILING HEIGHT)-SPACE FUNCTION SYS-3 FLR-3 SCH-A HPLCMT-NORTH ZN,Zone Air Temperature [C] !Hourly
1233,7,SP-MANUFACTURING FACILITY LOW BAY AREA (< 7.5 M FLOOR-TO-CEILING HEIGHT)-SPACE FUNCTION SYS-3 FLR-3 SCH-A HPLCMT-NORTH ZN,Zone Air Relative Humidity [%] !Daily [Value,Min,Hour,Minute,Max,Hour,Minute]
1272,1,SP-MUSEUM GENERAL EXHIBITION AREA-SPACE FUNCTION SYS-2 FLR-3 SCH-C HPLCMT-WEST ZN,Zone Air Temperature [C] !Hourly
1273,7,SP-MUSEUM GENERAL EXHIBITION AREA-SPACE FUNCTION SYS-2 FLR-3 SCH-C HPLCMT-WEST ZN,Zone Air Relative Humidity [%] !Daily [Value,Min,Hour,Minute,Max,Hour,Minute]
1312,1,SP-MUSEUM RESTORATION ROOM-SPACE FUNCTION SYS-2 FLR-1 SCH-A HPLCMT-WEST ZN,Zone Air Temperature [C] !Hourly
1313,7,SP-MUSEUM RESTORATION ROOM-SPACE FUNCTION SYS-2 FLR-1 SCH-A HPLCMT-WEST ZN,Zone Air Relative Humidity [%] !Daily [Value,Min,Hour,Minute,Max,Hour,Minute]
1352,1,SP-POST OFFICE SORTING AREA-SPACE FUNCTION SYS-6 FLR-4 SCH-A HPLCMT-EAST ZN,Zone Air Temperature [C] !Hourly
1353,7,SP-POST OFFICE SORTING AREA-SPACE FUNCTION SYS-6 FLR-4 SCH-A HPLCMT-EAST ZN,Zone Air Relative Humidity [%] !Daily [Value,Min,Hour,Minute,Max,Hour,Minute]
1392,1,SP-RELIGIOUS BUILDING FELLOWSHIP HALL-SPACE FUNCTION SYS-3 FLR-1 SCH-C HPLCMT-NORTH ZN,Zone Air Temperature [C] !Hourly
1393,7,SP-RELIGIOUS BUILDING FELLOWSHIP HALL-SPACE FUNCTION SYS-3 FLR-1 SCH-C HPLCMT-NORTH ZN,Zone Air Relative Humidity [%] !Daily [Value,Min,Hour,Minute,Max,Hour,Minute]
1432,1,SP-RETAIL FACILITY DRESSING/FITTING ROOM-SPACE FUNCTION SYS-6 FLR-3 SCH-C HPLCMT-CORE ZN,Zone Air Temperature [C] !Hourly
1433,7,SP-RETAIL FACILITY DRESSING/FITTING ROOM-SPACE FUNCTION SYS-6 FLR-3 SCH-C HPLCMT-CORE ZN,Zone Air Relative Humidity [%] !Daily [Value,Min,Hour,Minute,Max,Hour,Minute]
1472,1,SP-RETAIL FACILITY MALL CONCOURSE-SPACE FUNCTION SYS-6 FLR-2 SCH-C HPLCMT-CORE ZN,Zone Air Temperature [C] !Hourly
1473,7,SP-RETAIL FACILITY MALL CONCOURSE-SPACE FUNCTION SYS-6 FLR-2 SCH-C HPLCMT-CORE ZN,Zone Air Relative Humidity [%] !Daily [Value,Min,Hour,Minute,Max,Hour,Minute]
1512,1,SP-SPACE DESIGNED TO ANSI/IES RP-28 RECREATION ROOM (USED PRIMARILY BY RESIDENTS)-SPACE FUNCTION SYS-3 FLR-4 SCH-B HPLCMT-CORE ZN,Zone Air Temperature [C] !Hourly
1513,7,SP-SPACE DESIGNED TO ANSI/IES RP-28 RECREATION ROOM (USED PRIMARILY BY RESIDENTS)-SPACE FUNCTION SYS-3 FLR-4 SCH-B HPLCMT-CORE ZN,Zone Air Relative Humidity [%] !Daily [Value,Min,Hour,Minute,Max,Hour,Minute]
1552,1,SP-SPORTS ARENA PLAYING AREA CLASS I FACILITY(4)-SPACE FUNCTION SYS-6 FLR-4 SCH-B HPLCMT-WEST ZN,Zone Air Temperature [C] !Hourly
1553,7,SP-SPORTS ARENA PLAYING AREA CLASS I FACILITY(4)-SPACE FUNCTION SYS-6 FLR-4 SCH-B HPLCMT-WEST ZN,Zone Air Relative Humidity [%] !Daily [Value,Min,Hour,Minute,Max,Hour,Minute]
1592,1,SP-SPORTS ARENA PLAYING AREA CLASS II FACILITY(4)-SPACE FUNCTION SYS-6 FLR-1 SCH-B HPLCMT-EAST ZN,Zone Air Temperature [C] !Hourly
1593,7,SP-SPORTS ARENA PLAYING AREA CLASS II FACILITY(4)-SPACE FUNCTION SYS-6 FLR-1 SCH-B HPLCMT-EAST ZN,Zone Air Relative Humidity [%] !Daily [Value,Min,Hour,Minute,Max,Hour,Minute]
1632,1,SP-SPORTS ARENA PLAYING AREA CLASS III FACILITY(4)-SPACE FUNCTION SYS-6 FLR-3 SCH-B HPLCMT-EAST ZN,Zone Air Temperature [C] !Hourly
1633,7,SP-SPORTS ARENA PLAYING AREA CLASS III FACILITY(4)-SPACE FUNCTION SYS-6 FLR-3 SCH-B HPLCMT-EAST ZN,Zone Air Relative Humidity [%] !Daily [Value,Min,Hour,Minute,Max,Hour,Minute]
1672,1,SP-SPORTS ARENA PLAYING AREA CLASS IV FACILITY(4)-SPACE FUNCTION SYS-6 FLR-1 SCH-B HPLCMT-SOUTH ZN,Zone Air Temperature [C] !Hourly
1673,7,SP-SPORTS ARENA PLAYING AREA CLASS IV FACILITY(4)-SPACE FUNCTION SYS-6 FLR-1 SCH-B HPLCMT-SOUTH ZN,Zone Air Relative Humidity [%] !Daily [Value,Min,Hour,Minute,Max,Hour,Minute]
1712,1,SP-TRANSPORTATION FACILITY AIRPORT CONCOURSE-SPACE FUNCTION SYS-6 FLR-1 SCH-H HPLCMT-CORE ZN,Zone Air Temperature [C] !Hourly
1713,7,SP-TRANSPORTATION FACILITY AIRPORT CONCOURSE-SPACE FUNCTION SYS-6 FLR-1 SCH-H HPLCMT-CORE ZN,Zone Air Relative Humidity [%] !Daily [Value,Min,Hour,Minute,Max,Hour,Minute]
1752,1,SP-TRANSPORTATION FACILITY BAGGAGE/CAROUSEL AREA-SPACE FUNCTION SYS-6 FLR-2 SCH-H HPLCMT-NORTH ZN,Zone Air Temperature [C] !Hourly
1753,7,SP-TRANSPORTATION FACILITY BAGGAGE/CAROUSEL AREA-SPACE FUNCTION SYS-6 FLR-2 SCH-H HPLCMT-NORTH ZN,Zone Air Relative Humidity [%] !Daily [Value,Min,Hour,Minute,Max,Hour,Minute]
1792,1,SP-TRANSPORTATION FACILITY TERMINAL TICKET COUNTER-SPACE FUNCTION SYS-6 FLR-2 SCH-H HPLCMT-SOUTH ZN,Zone Air Temperature [C] !Hourly
1793,7,SP-TRANSPORTATION FACILITY TERMINAL TICKET COUNTER-SPACE FUNCTION SYS-6 FLR-2 SCH-H HPLCMT-SOUTH ZN,Zone Air Relative Humidity [%] !Daily [Value,Min,Hour,Minute,Max,Hour,Minute]
1832,1,SP-WAREHOUSE STORAGE AREA MEDIUM TO BULKY PALLETIZED ITEMS-SPACE FUNCTION SYS-4 FLR-2 SCH-A HPLCMT-WEST ZN,Zone Air Temperature [C] !Hourly
1833,7,SP-WAREHOUSE STORAGE AREA MEDIUM TO BULKY PALLETIZED ITEMS-SPACE FUNCTION SYS-4 FLR-2 SCH-A HPLCMT-WEST ZN,Zone Air Relative Humidity [%] !Daily [Value,Min,Hour,Minute,Max,Hour,Minute]
1872,1,SP-WAREHOUSE STORAGE AREA SMALL HAND-CARRIED ITEMS(4)-SPACE FUNCTION SYS-4 FLR-2 SCH-A HPLCMT-EAST ZN,Zone Air Temperature [C] !Hourly
1873,7,SP-WAREHOUSE STORAGE AREA SMALL HAND-CARRIED ITEMS(4)-SPACE FUNCTION SYS-4 FLR-2 SCH-A HPLCMT-EAST ZN,Zone Air Relative Humidity [%] !Daily [Value,Min,Hour,Minute,Max,Hour,Minute]
10,1,Electricity:Facility [J] !TimeStep
878,1,Gas:Facility [J] !TimeStep
End of Data Dictionary
1,FORT MCMURRAY AP ANN CLG .4% CONDNS DB=>MWB,  56.65,-111.22,  -7.00, 369.10
2,1, 7,21, 0, 1, 0.00,10.00,SummerDesignDay
8,14.218136923962174
10,260908919.26931609
878,90243404.2010997
2,1, 7,21, 0, 1,10.00,20.00,SummerDesignDay
8,14.171982153293495
10,259541965.19870226
878,89405133.03678969
2,1, 7,21, 0, 1,20.00,30.00,SummerDesignDay
8,14.125744780286427
10,259139084.1872509
878,89459620.64637979
2,1, 7,21, 0, 1,30.00,40.00,SummerDesignDay
8,14.079436086331978
10,258786608.7222163
878,89476923.37749623
2,1, 7,21, 0, 1,40.00,50.00,SummerDesignDay
8,14.033050387896898
10,258446480.57735316
878,89535719.82300329
2,1, 7,21, 0, 1,50.00,60.00,SummerDesignDay
8,13.986581233564835
10,258163333.77258716
878,89552797.30437376
2,1, 7,21, 0, 1, 0.00,60.00,SummerDesignDay
1112,23.516944955284413
1152,23.237704330700287
1192,24.63245154040852
1232,24.18331709220072
1272,22.813237858726479
1312,22.87155523647706
1352,21.34453860653603
1392,21.32323737409243
1432,24.34440501612401
1472,22.86250453721947
1512,23.390392949412147
1552,23.997699770322489
1592,23.997365062041856
1632,23.997469433937526
1672,23.99745551848549
1712,22.000672955651976
1752,23.99897099418833
1792,23.997929358483849
1832,25.50787281962167
1872,25.95357311465486
2,1, 7,21, 0, 2, 0.00,10.00,SummerDesignDay
8,13.95555882260429
10,182487876.35592709
878,86459195.0466475
2,1, 7,21, 0, 2,10.00,20.00,SummerDesignDay
8,13.924507755336454
10,182465877.5073917
878,86195137.07153313
2,1, 7,21, 0, 2,20.00,30.00,SummerDesignDay
8,13.893416042989206
10,182450496.1186417
878,91924290.97429906
2,1, 7,21, 0, 2,30.00,40.00,SummerDesignDay
8,13.862289589689029
10,182422850.246578
878,91827458.27865669
2,1, 7,21, 0, 2,40.00,50.00,SummerDesignDay
8,13.831134407608739
10,182402686.82509715
878,88725966.37480593
2,1, 7,21, 0, 2,50.00,60.00,SummerDesignDay
8,13.799938415548118
10,182378989.4824219
878,62686232.45397712
2,1, 7,21, 0, 2, 0.00,60.00,SummerDesignDay
1112,23.06014049821407
1152,22.781888183331703
1192,24.32297309803472
1232,23.878490722111864
1272,22.39059644246385
1312,22.562682730900986
1352,21.11638912760163
1392,20.936103020345283
1432,24.256678874752557
1472,22.815512548044184
1512,22.171599886932826
1552,23.76174974367568
1592,25.013967876648253
1632,24.645915798610916
1672,24.655875783502535
1712,21.524304339129335
1752,23.99913010355146
1792,23.998242633308477
1832,25.332600624948467
1872,25.850204247200698
2,1, 7,21, 0, 3, 0.00,10.00,SummerDesignDay
8,13.776521671948676
10,121472275.45175645
878,31210063.11195531
2,1, 7,21, 0, 3,10.00,20.00,SummerDesignDay
8,13.753085235778466
10,121443260.03702101
878,38115512.566084038
2,1, 7,21, 0, 3,20.00,30.00,SummerDesignDay
8,13.729636002354969
10,121422901.77445416
878,38150322.69453952
2,1, 7,21, 0, 3,30.00,40.00,SummerDesignDay
8,13.706147375533054
10,121404139.02139177
878,27907476.64126803
2,1, 7,21, 0, 3,40.00,50.00,SummerDesignDay
8,13.682651961920304
10,121379762.0765303
878,10190746.894489618
2,1, 7,21, 0, 3,50.00,60.00,SummerDesignDay
8,13.659136670643687
10,121352829.68127488
878,38057351.85306664
2,1, 7,21, 0, 3, 0.00,60.00,SummerDesignDay
1112,22.661837923239458
1152,22.387638608833453
1192,24.08110906885999
1232,23.641029288461075
1272,22.05816095007828
1312,22.33405701894107
1352,20.894446588703294
1392,20.6571040669193
1432,24.14395392853022
1472,22.77011318475229
1512,20.829567834455486
1552,21.868142207198745
1592,24.307801915849926
1632,23.978640221582454
1672,24.149757161436303
1712,21.363501777653967
1752,23.999419656027898
1792,23.99881174958281
1832,25.18580735106711
1872,25.7618923558291
2,1, 7,21, 0, 4, 0.00,10.00,SummerDesignDay
8,13.63560137410855
10,121339180.04143805
878,38029272.23662836
2,1, 7,21, 0, 4,10.00,20.00,SummerDesignDay
8,13.612040802606578
10,121301868.83353167
878,12000.0
2,1, 7,21, 0, 4,20.00,30.00,SummerDesignDay
8,13.58846620506876
10,121278856.5082189
878,37980318.1760958
2,1, 7,21, 0, 4,30.00,40.00,SummerDesignDay
8,13.56487178447336
10,121255172.38275913
878,38005318.33364739
2,1, 7,21, 0, 4,40.00,50.00,SummerDesignDay
8,13.541257354069103
10,121227450.44141802
878,38058543.535557869
2,1, 7,21, 0, 4,50.00,60.00,SummerDesignDay
8,13.517617463812285
10,121199417.85863206
878,12000.0
2,1, 7,21, 0, 4, 0.00,60.00,SummerDesignDay
1112,22.24215618145782
1152,21.968370541859444
1192,23.81893398957717
1232,23.38019740409816
1272,21.699479903340334
1312,22.095573414233614
1352,20.624288345680964
1392,20.374353690209746
1432,23.95583288128776
1472,22.709326852266999
1512,19.9920548761507
1552,20.474993779893809
1592,23.55135870487614
1632,23.36583150717747
1672,23.554698443513109
1712,21.296743321660597
1752,23.998994724727667
1792,23.997958809275756
1832,25.016433412391593
1872,25.63788793707317
2,1, 7,21, 0, 5, 0.00,10.00,SummerDesignDay
8,13.50185415824011
10,121174617.18544367
878,37985247.30159805
2,1, 7,21, 0, 5,10.00,20.00,SummerDesignDay
8,13.486076034032447
10,121201145.29598724
878,38020501.83125871
2,1, 7,21, 0, 5,20.00,30.00,SummerDesignDay
8,13.470289340350983
10,121215870.0269974
878,38071295.21894988
2,1, 7,21, 0, 5,30.00,40.00,SummerDesignDay
8,13.454493322631063
10,121230764.55999996
878,12000.0
2,1, 7,21, 0, 5,40.00,50.00,SummerDesignDay
8,13.438688835118548
10,121243551.44703603
878,37989880.765405777
2,1, 7,21, 0, 5,50.00,60.00,SummerDesignDay
8,13.422888173889437
10,121243339.36478678
878,38035241.88939343
2,1, 7,21, 0, 5, 0.00,60.00,SummerDesignDay
1112,21.932796994912324
1152,21.766714020019973
1192,23.580551282215045
1232,23.19817666416688
1272,21.364635422380976
1312,21.880243123288254
1352,20.64616706740861
1392,20.135446927933317
1432,23.746710155511697
1472,22.64498530533906
1512,19.646983623573953
1552,20.030478076191657
1592,23.319043136724006
1632,23.226305225925015
1672,23.363297076471985
1712,21.241489353166327
1752,23.99894481660083
1792,23.99793633524551
1832,24.84740568001928
1872,25.587028113033545
2,1, 7,21, 0, 6, 0.00,10.00,SummerDesignDay
8,13.438688835118548
10,121233630.10494861
878,16874314.97842212
2,1, 7,21, 0, 6,10.00,20.00,SummerDesignDay
8,13.454493322631063
10,121214508.63028448
878,21153210.95241094
2,1, 7,21, 0, 6,20.00,30.00,SummerDesignDay
8,13.470289340350983
10,121193343.52817416
878,37995482.592098798
2,1, 7,21, 0, 6,30.00,40.00,SummerDesignDay
8,13.486076034032447
10,121163813.22650342
878,38049150.18923132
2,1, 7,21, 0, 6,40.00,50.00,SummerDesignDay
8,13.50185415824011
10,121132708.64313056
878,12000.0
2,1, 7,21, 0, 6,50.00,60.00,SummerDesignDay
8,13.517617463812285
10,121104949.48229189
878,37981824.155331078
2,1, 7,21, 0, 6, 0.00,60.00,SummerDesignDay
1112,21.953959246637664
1152,22.018022860167596
1192,23.44620990640701
1232,23.163829518369956
1272,21.18331516871505
1312,21.765280867259134
1352,21.644683139028673
1392,20.052549895813539
1432,23.559283623133429
1472,22.587027526757934
1512,19.656522933418917
1552,20.00184187237412
1592,23.188978907635656
1632,23.530081695293828
1672,23.254357913636246
1712,21.19559246196003
1752,23.998943650173037
1792,23.997923381872938
1832,24.728947810004425
1872,25.955205433335406
2,1, 7,21, 0, 7, 0.00,10.00,SummerDesignDay
8,13.572736920571789
10,131773947.29023858
878,38378867.06864811
2,1, 7,21, 0, 7,10.00,20.00,SummerDesignDay
8,13.627748229152554
10,128810465.2686907
878,38103995.079201918
2,1, 7,21, 0, 7,20.00,30.00,SummerDesignDay
8,13.682651961920304
10,127399261.63819202
878,12000.0
2,1, 7,21, 0, 7,30.00,40.00,SummerDesignDay
8,13.737448093244995
10,126257631.25599389
878,37986628.419547338
2,1, 7,21, 0, 7,40.00,50.00,SummerDesignDay
8,13.792137011831216
10,126537169.97904119
878,38025748.82782484
2,1, 7,21, 0, 7,50.00,60.00,SummerDesignDay
8,13.846719282840333
10,126381087.8590879
878,38075555.16006378
2,1, 7,21, 0, 7, 0.00,60.00,SummerDesignDay
1112,22.354671474096084
1152,22.342816929694437
1192,23.483446833235658
1232,23.168972049487448
1272,21.284131893900449
1312,21.84024420061172
1352,22.804890159485269
1392,20.248018071484386
1432,23.4087080167058
1472,22.53205024193416
1512,20.109686964283193
1552,20.196480335040325
1592,23.107804166137539
1632,23.886294504183579
1672,23.165875152572807
1712,21.157009261547235
1752,23.999218554630234
1792,23.998410027315868
1832,24.00138429808385
1872,24.157730037259286
2,1, 7,21, 0, 8, 0.00,10.00,SummerDesignDay
8,13.978831900527043
10,154959324.19428859
878,12000.0
2,1, 7,21, 0, 8,10.00,20.00,SummerDesignDay
8,14.110321014287419
10,155735849.29545806
878,38184532.65168218
2,1, 7,21, 0, 8,20.00,30.00,SummerDesignDay
8,14.241191509616986
10,156566539.39548309
878,38114424.32935681
2,1, 7,21, 0, 8,30.00,40.00,SummerDesignDay
8,14.371447531304272
10,157124779.19218917
878,38214810.42790454
2,1, 7,21, 0, 8,40.00,50.00,SummerDesignDay
8,14.501093766564925
10,160522236.38559116
878,12000.0
2,1, 7,21, 0, 8,50.00,60.00,SummerDesignDay
8,14.630134792273804
10,163179394.14777289
878,38146989.8391876
2,1, 7,21, 0, 8, 0.00,60.00,SummerDesignDay
1112,23.567537950693393
1152,23.54406129207972
1192,23.9288787201971
1232,23.74895309907419
1272,21.872449212760853
1312,22.45562274860764
1352,23.929705750915948
1392,20.922498246448919
1432,23.274778896332838
1472,22.461629089268894
1512,21.330899676428996
1552,20.744236444726125
1592,23.038048361983557
1632,24.211433889686125
1672,23.07715523126726
1712,21.120137940364484
1752,23.999425374683058
1792,23.998818684056105
1832,23.999979392891946
1872,23.99983498163469
2,1, 7,21, 0, 9, 0.00,10.00,SummerDesignDay
8,14.773641492809972
10,290816803.99450036
878,57067447.07414476
2,1, 7,21, 0, 9,10.00,20.00,SummerDesignDay
8,14.91640948124148
10,296770228.9361105
878,43961212.03588194
2,1, 7,21, 0, 9,20.00,30.00,SummerDesignDay
8,15.05843890714102
10,302049633.541767
878,65572430.1700822
2,1, 7,21, 0, 9,30.00,40.00,SummerDesignDay
8,15.199735893563798
10,305271847.931757
878,60625827.76880224
2,1, 7,21, 0, 9,40.00,50.00,SummerDesignDay
8,15.340306256439395
10,308583362.98783329
878,42931193.61582207
2,1, 7,21, 0, 9,50.00,60.00,SummerDesignDay
8,15.48015101768072
10,314264712.1800023
878,42800669.49675429
2,1, 7,21, 0, 9, 0.00,60.00,SummerDesignDay
1112,23.99961533432968
1152,23.999527269547838
1192,23.99963230139411
1232,23.99958243738763
1272,23.30938640288227
1312,23.78499893787293
1352,23.99970515434714
1392,22.559680274241118
1432,23.60970681352283
1472,22.859497874396145
1512,23.247944082069226
1552,21.658225774546954
1592,22.986552233378718
1632,23.99365135333819
1672,23.004102520651199
1712,21.923267020050358
1752,23.999333143272606
1792,23.99866209303004
1832,23.999941285330228
1872,23.99974122677699
2,1, 7,21, 0,10, 0.00,10.00,SummerDesignDay
8,15.60467292907716
10,426534687.4962551
878,98183961.91958866
2,1, 7,21, 0,10,10.00,20.00,SummerDesignDay
8,15.72862731650033
10,432889050.876721
878,147678235.39134509
2,1, 7,21, 0,10,20.00,30.00,SummerDesignDay
8,15.852017409284228
10,438871415.891189
878,128254650.31797387
2,1, 7,21, 0,10,30.00,40.00,SummerDesignDay
8,15.974848118364367
10,447489265.1459142
878,120286283.78848195
2,1, 7,21, 0,10,40.00,50.00,SummerDesignDay
8,16.097123145563505
10,455212711.56425848
878,148440818.6705495
2,1, 7,21, 0,10,50.00,60.00,SummerDesignDay
8,16.218846351168599
10,459296170.2117568
878,99740371.19796203
2,1, 7,21, 0,10, 0.00,60.00,SummerDesignDay
1112,23.999365168705748
1152,23.999305540264186
1192,23.999477517303246
1232,23.999453838978114
1272,23.998807566475894
1312,24.00084936792202
1352,23.999602477161557
1392,23.789527585938335
1432,23.973965303849185
1472,23.382617608980735
1512,23.99954507639289
1552,23.631765442697277
1592,23.793366809133464
1632,23.999483858595896
1672,23.67413955755327
1712,22.00052549881678
1752,23.999259470440778
1792,23.998505588714467
1832,23.999918928163316
1872,23.999718206713739
2,1, 7,21, 0,11, 0.00,10.00,SummerDesignDay
8,16.325793027093189
10,508523838.54001459
878,154808363.5917798
2,1, 7,21, 0,11,10.00,20.00,SummerDesignDay
8,16.432322158488288
10,514903913.1064263
878,155416395.42397548
2,1, 7,21, 0,11,20.00,30.00,SummerDesignDay
8,16.538424180249178
10,519445398.37278529
878,138971316.35864494
2,1, 7,21, 0,11,30.00,40.00,SummerDesignDay
8,16.644108396469087
10,523791971.58457729
878,120797882.48897246
2,1, 7,21, 0,11,40.00,50.00,SummerDesignDay
8,16.749376736593655
10,527995885.0463161
878,155259400.7153603
2,1, 7,21, 0,11,50.00,60.00,SummerDesignDay
8,16.854232613237156
10,532101563.7581465
878,155162099.44695548
2,1, 7,21, 0,11, 0.00,60.00,SummerDesignDay
1112,23.998924281356186
1152,23.998919844978617
1192,23.999123339836669
1232,23.999155298965296
1272,24.199349597897429
1312,24.093632040078377
1352,23.99902558201129
1392,23.99941113195587
1432,23.99987931903787
1472,23.86870644265936
1512,23.999486812337584
1552,23.997839987238565
1592,23.998144206436419
1632,23.998125632192786
1672,23.998437664917974
1712,22.001149731848714
1752,23.998878174077065
1792,23.997740914373268
1832,23.999869185757988
1872,23.999615117020693
2,1, 7,21, 0,12, 0.00,10.00,SummerDesignDay
8,16.92390823520069
10,581085749.4458363
878,96118001.21732395
2,1, 7,21, 0,12,10.00,20.00,SummerDesignDay
8,16.99340178950456
10,583714537.2617204
878,141962645.35659505
2,1, 7,21, 0,12,20.00,30.00,SummerDesignDay
8,17.06272006743463
10,587350263.5419241
878,99606775.68122338
2,1, 7,21, 0,12,30.00,40.00,SummerDesignDay
8,17.131853229172639
10,590679652.2560939
878,101906131.58145231
2,1, 7,21, 0,12,40.00,50.00,SummerDesignDay
8,17.200807172194087
10,594073159.4147952
878,144719815.25687114
2,1, 7,21, 0,12,50.00,60.00,SummerDesignDay
8,17.269582116758607
10,597466943.124197
878,99927185.6529625
2,1, 7,21, 0,12, 0.00,60.00,SummerDesignDay
1112,23.99875981689877
1152,23.99880462487941
1192,23.998956424282935
1232,23.999040506820564
1272,24.378091349806284
1312,24.176010912209308
1352,23.99882802289487
1392,23.99923619353761
1432,23.99977906656798
1472,23.997075543037196
1512,23.99949208516895
1552,23.997376070244515
1592,23.997200611793187
1632,23.997412941326816
1672,23.997341887174316
1712,22.00096465381941
1752,23.99887378997687
1792,23.997774414982577
1832,23.999860951328278
1872,23.999626800674166
2,1, 7,21, 0,13, 0.00,10.00,SummerDesignDay
8,17.32447360221357
10,611324635.8957266
878,156247800.69746245
2,1, 7,21, 0,13,10.00,20.00,SummerDesignDay
8,17.379251291230806
10,616064198.9430422
878,140200244.59025146
2,1, 7,21, 0,13,20.00,30.00,SummerDesignDay
8,17.433921312061729
10,619347579.7477661
878,124503143.30144608
2,1, 7,21, 0,13,30.00,40.00,SummerDesignDay
8,17.488473222557489
10,622553092.747711
878,157432972.33959273
2,1, 7,21, 0,13,40.00,50.00,SummerDesignDay
8,17.542913447755134
10,625618846.844967
878,157338891.7874807
2,1, 7,21, 0,13,50.00,60.00,SummerDesignDay
8,17.59724609886134
10,628524995.166262
878,126025557.15648532
2,1, 7,21, 0,13, 0.00,60.00,SummerDesignDay
1112,23.998880602971395
1152,23.99895572382654
1192,23.999017488613388
1232,23.99912348103526
1272,24.505927263195443
1312,24.235855521421624
1352,23.99897088869008
1392,23.99861514761027
1432,23.999662698924565
1472,23.999569909771937
1512,23.999092112031339
1552,23.996960677531324
1592,23.99653302070773
1632,23.99677274414034
1672,23.99637303806331
1712,22.000920176809499
1752,23.998876776408847
1792,23.997841677680769
1832,23.999869533592208
1872,23.999647296349669
2,1, 7,21, 0,14, 0.00,10.00,SummerDesignDay
8,17.6311450462694
10,627290458.8429844
878,142601349.27808649
2,1, 7,21, 0,14,10.00,20.00,SummerDesignDay
8,17.665000449016245
10,630025954.3007469
878,162607682.71226175
2,1, 7,21, 0,14,20.00,30.00,SummerDesignDay
8,17.698812743128934
10,631983071.1522536
878,162659632.2248553
2,1, 7,21, 0,14,30.00,40.00,SummerDesignDay
8,17.732582050940107
10,634034628.6554064
878,162487665.66991846
2,1, 7,21, 0,14,40.00,50.00,SummerDesignDay
8,17.766307345121004
10,639178933.0328059
878,162542041.08213599
2,1, 7,21, 0,14,50.00,60.00,SummerDesignDay
8,17.79999023167558
10,641538355.5151662
878,155342815.3727012
2,1, 7,21, 0,14, 0.00,60.00,SummerDesignDay
1112,23.999211321693239
1152,23.999227019613988
1192,23.999231595296576
1232,23.999257241646274
1272,24.595190322595589
1312,24.277878737858033
1352,23.999131215477794
1392,23.998148001686123
1432,23.999534113882903
1472,23.999427874795683
1512,23.99875215625565
1552,23.996636493250219
1592,23.996261873660417
1632,23.996370131646427
1672,23.996205056454188
1712,22.000583263864795
1752,23.998881903488159
1792,23.99790651711747
1832,23.999868867941627
1872,23.99965826484598
2,1, 7,21, 0,15, 0.00,10.00,SummerDesignDay
8,17.79999023167558
10,631697923.5239472
878,139666154.31571088
2,1, 7,21, 0,15,10.00,20.00,SummerDesignDay
8,17.79999023167558
10,632088811.0884835
878,140237314.99995763
2,1, 7,21, 0,15,20.00,30.00,SummerDesignDay
8,17.79999023167558
10,632724941.6735231
878,162315285.18366219
2,1, 7,21, 0,15,30.00,40.00,SummerDesignDay
8,17.79999023167558
10,633397670.9891815
878,162377783.69483126
2,1, 7,21, 0,15,40.00,50.00,SummerDesignDay
8,17.79999023167558
10,633958372.9007489
878,162200112.3764334
2,1, 7,21, 0,15,50.00,60.00,SummerDesignDay
8,17.79999023167558
10,634345473.1271428
878,162256876.94254703
2,1, 7,21, 0,15, 0.00,60.00,SummerDesignDay
1112,23.99900932726111
1152,23.999056532233895
1192,23.99902943355831
1232,23.999027253220765
1272,24.619827191169099
1312,24.29157181747971
1352,23.999024271160257
1392,23.998093953660164
1432,23.999503256119483
1472,23.999347365587047
1512,23.99895194850821
1552,23.997062834448596
1592,23.996822464441988
1632,23.996860123529335
1672,23.99684820671302
1712,22.00108092956684
1752,23.99888927210174
1792,23.997964557043365
1832,23.999801008809525
1872,23.999593878805439
2,1, 7,21, 0,16, 0.00,10.00,SummerDesignDay
8,17.759562446305357
10,623945580.285184
878,106346459.33676714
2,1, 7,21, 0,16,10.00,20.00,SummerDesignDay
8,17.71907809634183
10,620706286.5780901
878,149235828.3548253
2,1, 7,21, 0,16,20.00,30.00,SummerDesignDay
8,17.67853788661001
10,618781081.0284674
878,135704152.1076692
2,1, 7,21, 0,16,30.00,40.00,SummerDesignDay
8,17.63791796367351
10,616712097.7808703
878,118885029.8550777
2,1, 7,21, 0,16,40.00,50.00,SummerDesignDay
8,17.59724609886134
10,614605792.9306845
878,151564821.3623878
2,1, 7,21, 0,16,50.00,60.00,SummerDesignDay
8,17.55650676726033
10,612362046.2424756
878,102887241.62500775
2,1, 7,21, 0,16, 0.00,60.00,SummerDesignDay
1112,23.998872373634684
1152,23.998790608948544
1192,23.998827898405904
1232,23.998793151863344
1272,24.56462525831577
1312,24.267749981212917
1352,23.99899048497983
1392,23.998062013859398
1432,23.99951619410625
1472,23.99930454414253
1512,23.999348884208719
1552,23.99807947918264
1592,23.99766720629422
1632,23.99780272179041
1672,23.99770161523797
1712,22.000953566308597
1752,23.998900036302996
1792,23.997994051780056
1832,23.99968771710168
1872,23.999523025401215
2,1, 7,21, 0,17, 0.00,10.00,SummerDesignDay
8,17.50209486331892
10,610507452.8079672
878,130915407.46855489
2,1, 7,21, 0,17,10.00,20.00,SummerDesignDay
8,17.447570789624618
10,606457606.9644413
878,107576246.5513815
2,1, 7,21, 0,17,20.00,30.00,SummerDesignDay
8,17.392929544208135
10,603492035.3251191
878,96076230.28487183
2,1, 7,21, 0,17,30.00,40.00,SummerDesignDay
8,17.33818013976614
10,600534943.1552267
878,96111762.2411781
2,1, 7,21, 0,17,40.00,50.00,SummerDesignDay
8,17.283317298559309
10,597571405.2438122
878,96061024.15893236
2,1, 7,21, 0,17,50.00,60.00,SummerDesignDay
8,17.22833552437677
10,594568266.8487829
878,129294795.4511469
2,1, 7,21, 0,17, 0.00,60.00,SummerDesignDay
1112,23.99899881344955
1152,23.998822663376257
1192,23.998681881242886
1232,23.99865055434439
1272,24.460080020276285
1312,24.218907849863656
1352,23.99906768596613
1392,23.99793803224121
1432,23.999492608172458
1472,23.999261835471349
1512,23.999638540464344
1552,23.99875552121276
1592,23.998281119062996
1632,23.99842253998213
1672,23.998165079795624
1712,22.00108631025664
1752,23.99891006093353
1792,23.997978402906797
1832,23.999607776136256
1872,23.999490035443743
2,1, 7,21, 0,18, 0.00,10.00,SummerDesignDay
8,17.159453019160176
10,580821171.5292097
878,88920367.3218542
2,1, 7,21, 0,18,10.00,20.00,SummerDesignDay
8,17.090391773337136
10,576598817.5054263
878,82317359.14840585
2,1, 7,21, 0,18,20.00,30.00,SummerDesignDay
8,17.021151077964786
10,572928993.8090483
878,82071077.10748393
2,1, 7,21, 0,18,30.00,40.00,SummerDesignDay
8,16.951729380464653
10,569312816.44836
878,85457161.52286403
2,1, 7,21, 0,18,40.00,50.00,SummerDesignDay
8,16.882126503829249
10,565727512.2488458
878,92591942.31116037
2,1, 7,21, 0,18,50.00,60.00,SummerDesignDay
8,16.812341807494034
10,562154345.067357
878,92547081.77642511
2,1, 7,21, 0,18, 0.00,60.00,SummerDesignDay
1112,23.999268547826707
1152,23.999124264582478
1192,23.998866052967445
1232,23.9987674241778
1272,24.331802861758474
1312,24.157786189631549
1352,23.999290188039038
1392,23.998183435445467
1432,23.99952165329098
1472,23.999290692244484
1512,23.999564211271033
1552,23.99880388174988
1592,23.99840296837499
1632,23.99852949938293
1672,23.99827340417319
1712,22.000916923607165
1752,23.998919434707394
1792,23.9979539472172
1832,23.999603031262905
1872,23.999543569897474
2,1, 7,21, 0,19, 0.00,10.00,SummerDesignDay
8,16.707321072823203
10,497148106.80607947
878,92636367.6665386
2,1, 7,21, 0,19,10.00,20.00,SummerDesignDay
8,16.601881826644556
10,491985380.6529118
878,92748239.86203826
2,1, 7,21, 0,19,20.00,30.00,SummerDesignDay
8,16.496030555252849
10,487299671.3291471
878,88394810.63429767
2,1, 7,21, 0,19,30.00,40.00,SummerDesignDay
8,16.389760181474104
10,482655745.78288236
878,87908781.81439367
2,1, 7,21, 0,19,40.00,50.00,SummerDesignDay
8,16.283067654262039
10,478084873.89897689
878,87809989.63036467
2,1, 7,21, 0,19,50.00,60.00,SummerDesignDay
8,16.17595057957811
10,473563905.00853309
878,87797910.39696978
2,1, 7,21, 0,19, 0.00,60.00,SummerDesignDay
1112,23.999668511062013
1152,23.999603310090835
1192,23.999365098849819
1232,23.999304057043106
1272,24.156033301665265
1312,24.073713822582176
1352,23.999630258452809
1392,23.998810237165018
1432,23.999572509146736
1472,23.9993917354272
1512,23.999361936337846
1552,23.99823020224365
1592,23.997810564597729
1632,23.99788898597149
1672,23.997707361510949
1712,22.00036872365119
1752,23.998921570068079
1792,23.99794579904945
1832,23.99969839021466
1872,23.999721938394989
2,1, 7,21, 0,20, 0.00,10.00,SummerDesignDay
8,16.097123145563505
10,418166895.68706569
878,88659909.85176502
2,1, 7,21, 0,20,10.00,20.00,SummerDesignDay
8,16.018070242471564
10,414859253.351257
878,88770926.07105108
2,1, 7,21, 0,20,20.00,30.00,SummerDesignDay
8,15.938779752340516
10,411397443.4570888
878,88878991.25644104
2,1, 7,21, 0,20,30.00,40.00,SummerDesignDay
8,15.85926152575189
10,407851646.0860129
878,98097975.00095065