Program Version,EnergyPlus, Version 8.9.0-eba93e8e1b, YMD=2019.03.22 18:49
1,5,Environment Title[],Latitude[deg],Longitude[deg],Time Zone[],Elevation[m]
2,8,Day of Simulation[],Month[],Day of Month[],DST Indicator[1=yes 0=no],Hour[],StartMinute[],EndMinute[],DayType
3,5,Cumulative Day of Simulation[],Month[],Day of Month[],DST Indicator[1=yes 0=no],DayType  ! When Daily Report Variables Requested
4,2,Cumulative Days of Simulation[],Month[]  ! When Monthly Report Variables Requested
5,1,Cumulative Days of Simulation[] ! When Run Period Report Variables Requested
6,1,Calendar Year of Simulation[] ! When Annual Report Variables Requested
7,9,Environment,Site Outdoor Air Drybulb Temperature [C] !Monthly [Value,Min,Day,Hour,Minute,Max,Day,Hour,Minute]
8,1,Environment,Site Outdoor Air Wetbulb Temperature [C] !TimeStep
555,1,SP-CONVENTION CENTRE EXHIBIT SPACE-SPACE FUNCTION SYS-3 FLR-1 SCH-C HPLCMT-EAST ZN,Zone Air Temperature [C] !Hourly
556,7,SP-CONVENTION CENTRE EXHIBIT SPACE-SPACE FUNCTION SYS-3 FLR-1 SCH-C HPLCMT-EAST ZN,Zone Air Relative Humidity [%] !Daily [Value,Min,Hour,Minute,Max,Hour,Minute]
595,1,SP-DORMITORY LIVING QUARTERS-SPACE FUNCTION SYS-3 FLR-1 SCH-G HPLCMT-NORTH ZN,Zone Air Temperature [C] !Hourly
596,7,SP-DORMITORY LIVING QUARTERS-SPACE FUNCTION SYS-3 FLR-1 SCH-G HPLCMT-NORTH ZN,Zone Air Relative Humidity [%] !Daily [Value,Min,Hour,Minute,Max,Hour,Minute]
635,1,SP-DWELLING UNITS GENERAL-SPACE FUNCTION SYS-1 FLR-1 SCH-G HPLCMT-WEST ZN,Zone Air Temperature [C] !Hourly
636,7,SP-DWELLING UNITS GENERAL-SPACE FUNCTION SYS-1 FLR-1 SCH-G HPLCMT-WEST ZN,Zone Air Relative Humidity [%] !Daily [Value,Min,Hour,Minute,Max,Hour,Minute]
675,1,SP-WASHROOM - SPACE DESIGNED TO ANSI/IES RP-28 (USED PRIMARILY BY RESIDENTS)-SCH-D-SPACE FUNCTION SYS-3 FLR-1 SCH-D HPLCMT-CORE ZN,Zone Air Temperature [C] !Hourly
676,7,SP-WASHROOM - SPACE DESIGNED TO ANSI/IES RP-28 (USED PRIMARILY BY RESIDENTS)-SCH-D-SPACE FUNCTION SYS-3 FLR-1 SCH-D HPLCMT-CORE ZN,Zone Air Relative Humidity [%] !Daily [Value,Min,Hour,Minute,Max,Hour,Minute]
715,1,SP-WORKSHOP-SPACE FUNCTION SYS-3 FLR-1 SCH-A HPLCMT-SOUTH ZN,Zone Air Temperature [C] !Hourly
716,7,SP-WORKSHOP-SPACE FUNCTION SYS-3 FLR-1 SCH-A HPLCMT-SOUTH ZN,Zone Air Relative Humidity [%] !Daily [Value,Min,Hour,Minute,Max,Hour,Minute]
10,1,Electricity:Facility [J] !TimeStep
321,1,Gas:Facility [J] !TimeStep
End of Data Dictionary
1,FORT MCMURRAY AP ANN CLG .4% CONDNS DB=>MWB,  56.65,-111.22,  -7.00, 369.10
2,1, 7,21, 0, 1, 0.00,10.00,SummerDesignDay
8,14.218136923962174
10,13958821.99249436
321,514483.3751425223
2,1, 7,21, 0, 1,10.00,20.00,SummerDesignDay
8,14.171982153293495
10,13930961.056841162
321,595802.019265132
2,1, 7,21, 0, 1,20.00,30.00,SummerDesignDay
8,14.125744780286427
10,13853737.810718382
321,18443560.068971166
2,1, 7,21, 0, 1,30.00,40.00,SummerDesignDay
8,14.079436086331978
10,13857671.373983298
321,758432.1150895786
2,1, 7,21, 0, 1,40.00,50.00,SummerDesignDay
8,14.033050387896898
10,13829866.359780087
321,2318194.589021071
2,1, 7,21, 0, 1,50.00,60.00,SummerDesignDay
8,13.986581233564835
10,13810438.734961804
321,17056186.100522777
2,1, 7,21, 0, 1, 0.00,60.00,SummerDesignDay
555,21.53199584055885
595,23.818137407876397
635,23.878654141105444
675,22.806698526468776
715,20.941329510344457
2,1, 7,21, 0, 2, 0.00,10.00,SummerDesignDay
8,13.95555882260429
10,9332478.616799068
321,978006.9324220819
2,1, 7,21, 0, 2,10.00,20.00,SummerDesignDay
8,13.924507755336454
10,9202496.30141914
321,1032218.6459582335
2,1, 7,21, 0, 2,20.00,30.00,SummerDesignDay
8,13.893416042989206
10,9191213.527156705
321,9915646.602714632
2,1, 7,21, 0, 2,30.00,40.00,SummerDesignDay
8,13.862289589689029
10,9158674.744515172
321,9103775.125633669
2,1, 7,21, 0, 2,40.00,50.00,SummerDesignDay
8,13.831134407608739
10,9138295.853969746
321,1194842.9091118316
2,1, 7,21, 0, 2,50.00,60.00,SummerDesignDay
8,13.799938415548118
10,9120204.957196182
321,1249050.6583025214
2,1, 7,21, 0, 2, 0.00,60.00,SummerDesignDay
555,21.072514603087727
595,23.184023790513323
635,23.879321061527095
675,22.28520131614206
715,20.408480597084134
2,1, 7,21, 0, 3, 0.00,10.00,SummerDesignDay
8,13.776521671948676
10,9120204.957196182
321,1291071.08091876
2,1, 7,21, 0, 3,10.00,20.00,SummerDesignDay
8,13.753085235778466
10,9120204.957196182
321,18201907.95924492
2,1, 7,21, 0, 3,20.00,30.00,SummerDesignDay
8,13.729636002354969
10,9120204.957196182
321,1372383.3611214287
2,1, 7,21, 0, 3,30.00,40.00,SummerDesignDay
8,13.706147375533054
10,9120204.957196182
321,1413038.7855790405
2,1, 7,21, 0, 3,40.00,50.00,SummerDesignDay
8,13.682651961920304
10,9120204.957196182
321,1453694.1335797848
2,1, 7,21, 0, 3,50.00,60.00,SummerDesignDay
8,13.659136670643687
10,9120204.957196182
321,1494349.3965897766
2,1, 7,21, 0, 3, 0.00,60.00,SummerDesignDay
555,20.711384977378015
595,22.62244215480143
635,23.855057897313718
675,21.906904695994844
715,20.022713439647978
2,1, 7,21, 0, 4, 0.00,10.00,SummerDesignDay
8,13.63560137410855
10,9120204.957196182
321,18148861.13943435
2,1, 7,21, 0, 4,10.00,20.00,SummerDesignDay
8,13.612040802606578
10,9120204.957196182
321,1575659.6452392126
2,1, 7,21, 0, 4,20.00,30.00,SummerDesignDay
8,13.58846620506876
10,9120204.957196182
321,1616314.6426318
2,1, 7,21, 0, 4,30.00,40.00,SummerDesignDay
8,13.56487178447336
10,9120204.957196182
321,1656969.5569302676
2,1, 7,21, 0, 4,40.00,50.00,SummerDesignDay
8,13.541257354069103
10,9120204.957196182
321,18623424.7434828
2,1, 7,21, 0, 4,50.00,60.00,SummerDesignDay
8,13.517617463812285
10,9120204.957196182
321,1738279.1048414405
2,1, 7,21, 0, 4, 0.00,60.00,SummerDesignDay
555,20.42668355964457
595,22.319491408359256
635,23.784203502400488
675,21.6277898435409
715,19.722736765255705
2,1, 7,21, 0, 5, 0.00,10.00,SummerDesignDay
8,13.50185415824011
10,9120204.957196182
321,1766744.2223617754
2,1, 7,21, 0, 5,10.00,20.00,SummerDesignDay
8,13.486076034032447
10,9120204.957196182
321,1793848.1313844068
2,1, 7,21, 0, 5,20.00,30.00,SummerDesignDay
8,13.470289340350983
10,9120204.957196182
321,1820951.1686371898
2,1, 7,21, 0, 5,30.00,40.00,SummerDesignDay
8,13.454493322631063
10,9120204.957196182
321,18562826.636784235
2,1, 7,21, 0, 5,40.00,50.00,SummerDesignDay
8,13.438688835118548
10,9120204.957196182
321,1875157.1254881032
2,1, 7,21, 0, 5,50.00,60.00,SummerDesignDay
8,13.422888173889437
10,9120204.957196182
321,1902260.0681186089
2,1, 7,21, 0, 5, 0.00,60.00,SummerDesignDay
555,20.19393923227774
595,22.11011007969527
635,23.717017341659177
675,21.415359019574443
715,19.47102530287327
2,1, 7,21, 0, 6, 0.00,10.00,SummerDesignDay
8,13.438688835118548
10,9120204.957196182
321,1880583.3148932926
2,1, 7,21, 0, 6,10.00,20.00,SummerDesignDay
8,13.454493322631063
10,9120204.957196182
321,18421163.05504239
2,1, 7,21, 0, 6,20.00,30.00,SummerDesignDay
8,13.470289340350983
10,9120204.957196182
321,2240153.647446836
2,1, 7,21, 0, 6,30.00,40.00,SummerDesignDay
8,13.486076034032447
10,9120204.957196182
321,1799275.264170763
2,1, 7,21, 0, 6,40.00,50.00,SummerDesignDay
8,13.50185415824011
10,9120204.957196182
321,1772172.2082137217
2,1, 7,21, 0, 6,50.00,60.00,SummerDesignDay
8,13.517617463812285
10,9120204.957196182
321,1745069.0940782678
2,1, 7,21, 0, 6, 0.00,60.00,SummerDesignDay
555,20.058710269693824
595,21.993462125420824
635,23.663107311826498
675,21.273685813749127
715,19.363031598217039
2,1, 7,21, 0, 7, 0.00,10.00,SummerDesignDay
8,13.572736920571789
10,11190957.23996469
321,33910340.21595112
2,1, 7,21, 0, 7,10.00,20.00,SummerDesignDay
8,13.627748229152554
10,11190957.23996469
321,21706060.229184398
2,1, 7,21, 0, 7,20.00,30.00,SummerDesignDay
8,13.682651961920304
10,11190957.23996469
321,1467269.1914500083
2,1, 7,21, 0, 7,30.00,40.00,SummerDesignDay
8,13.737448093244995
10,11575727.225870664
321,21744619.019335025
2,1, 7,21, 0, 7,40.00,50.00,SummerDesignDay
8,13.792137011831216
10,11495467.27922868
321,18323516.393740246
2,1, 7,21, 0, 7,50.00,60.00,SummerDesignDay
8,13.846719282840333
10,11480751.401220506
321,5813684.812269932
2,1, 7,21, 0, 7, 0.00,60.00,SummerDesignDay
555,20.125208154846694
595,22.254654423574057
635,23.82276632902158
675,21.25374952359037
715,20.08939439327924
2,1, 7,21, 0, 8, 0.00,10.00,SummerDesignDay
8,13.978831900527043
10,26399531.74599161
321,81154975.64892978
2,1, 7,21, 0, 8,10.00,20.00,SummerDesignDay
8,14.110321014287419
10,27656563.308908456
321,51795701.62890918
2,1, 7,21, 0, 8,20.00,30.00,SummerDesignDay
8,14.241191509616986
10,27782841.112146725
321,62619431.5418353
2,1, 7,21, 0, 8,30.00,40.00,SummerDesignDay
8,14.371447531304272
10,27889969.897888327
321,41378443.716738928
2,1, 7,21, 0, 8,40.00,50.00,SummerDesignDay
8,14.501093766564925
10,27955822.978010399
321,59811109.18049236
2,1, 7,21, 0, 8,50.00,60.00,SummerDesignDay
8,14.630134792273804
10,29570033.651176696
321,41111184.6731388
2,1, 7,21, 0, 8, 0.00,60.00,SummerDesignDay
555,20.51322619025362
595,23.308871869642286
635,23.934508008344208
675,21.421436367864943
715,22.053029231751226
2,1, 7,21, 0, 9, 0.00,10.00,SummerDesignDay
8,14.773641492809972
10,56701329.99600992
321,83066329.70165351
2,1, 7,21, 0, 9,10.00,20.00,SummerDesignDay
8,14.91640948124148
10,58760293.91199974
321,39505252.53990117
2,1, 7,21, 0, 9,20.00,30.00,SummerDesignDay
8,15.05843890714102
10,60814473.51597438
321,40794283.816660869
2,1, 7,21, 0, 9,30.00,40.00,SummerDesignDay
8,15.199735893563798
10,61904403.33215852
321,58430552.33124856
2,1, 7,21, 0, 9,40.00,50.00,SummerDesignDay
8,15.340306256439395
10,62611522.44309148
321,39473183.24545269
2,1, 7,21, 0, 9,50.00,60.00,SummerDesignDay
8,15.48015101768072
10,64063568.30365016
321,42001303.67973651
2,1, 7,21, 0, 9, 0.00,60.00,SummerDesignDay
555,23.079958939271707
595,23.998727965614525
635,23.93620774991987
675,22.597123682124093
715,23.799581145877104
2,1, 7,21, 0,10, 0.00,10.00,SummerDesignDay
8,15.60467292907716
10,83192366.56565832
321,39360745.751865778
2,1, 7,21, 0,10,10.00,20.00,SummerDesignDay
8,15.72862731650033
10,86663506.96665375
321,37211260.55792306
2,1, 7,21, 0,10,20.00,30.00,SummerDesignDay
8,15.852017409284228
10,90112419.95161708
321,36896589.54865338
2,1, 7,21, 0,10,30.00,40.00,SummerDesignDay
8,15.974848118364367
10,90527707.91687146
321,36999508.45839781
2,1, 7,21, 0,10,40.00,50.00,SummerDesignDay
8,16.097123145563505
10,91361411.88530655
321,36125817.16401401
2,1, 7,21, 0,10,50.00,60.00,SummerDesignDay
8,16.218846351168599
10,92133729.60795832
321,32501219.317473908
2,1, 7,21, 0,10, 0.00,60.00,SummerDesignDay
555,23.99921127002436
595,23.999082042435075
635,23.89601043119814
675,23.897521724526646
715,23.998927910959507
2,1, 7,21, 0,11, 0.00,10.00,SummerDesignDay
8,16.325793027093189
10,93353903.9989303
321,29403475.362119937
2,1, 7,21, 0,11,10.00,20.00,SummerDesignDay
8,16.432322158488288
10,93708816.82314314
321,29004338.158387588
2,1, 7,21, 0,11,20.00,30.00,SummerDesignDay
8,16.538424180249178
10,94234441.49587514
321,28993099.95535679
2,1, 7,21, 0,11,30.00,40.00,SummerDesignDay
8,16.644108396469087
10,94738536.00397165
321,28981873.819137664
2,1, 7,21, 0,11,40.00,50.00,SummerDesignDay
8,16.749376736593655
10,95217227.65430267
321,28970493.826667023
2,1, 7,21, 0,11,50.00,60.00,SummerDesignDay
8,16.854232613237156
10,95660866.02373857
321,28958956.853547656
2,1, 7,21, 0,11, 0.00,60.00,SummerDesignDay
555,23.999081135873955
595,23.998931800016604
635,23.871114259275715
675,23.999232425817924
715,23.999009569292757
2,1, 7,21, 0,12, 0.00,10.00,SummerDesignDay
8,16.92390823520069
10,95991119.38805667
321,16902216.664261223
2,1, 7,21, 0,12,10.00,20.00,SummerDesignDay
8,16.99340178950456
10,95698468.62753967
321,22725841.841968508
2,1, 7,21, 0,12,20.00,30.00,SummerDesignDay
8,17.06272006743463
10,96007974.77512422
321,22783085.1128195
2,1, 7,21, 0,12,30.00,40.00,SummerDesignDay
8,17.131853229172639
10,96301058.47642845
321,22850758.767090918
2,1, 7,21, 0,12,40.00,50.00,SummerDesignDay
8,17.200807172194087
10,96593055.23879418
321,13811695.221181145
2,1, 7,21, 0,12,50.00,60.00,SummerDesignDay
8,17.269582116758607
10,96882865.84381305
321,9035515.846519608
2,1, 7,21, 0,12, 0.00,60.00,SummerDesignDay
555,23.99892665178021
595,23.999269849830588
635,23.87314309551347
675,23.999307520441975
715,23.99899517473062
2,1, 7,21, 0,13, 0.00,10.00,SummerDesignDay
8,17.32447360221357
10,97183909.74968069
321,23687244.98849863
2,1, 7,21, 0,13,10.00,20.00,SummerDesignDay
8,17.379251291230806
10,97487523.10608346
321,23829120.869970476
2,1, 7,21, 0,13,20.00,30.00,SummerDesignDay
8,17.433921312061729
10,97775407.67821014
321,23871643.321392139
2,1, 7,21, 0,13,30.00,40.00,SummerDesignDay
8,17.488473222557489
10,98084675.78201151
321,23914344.843549428
2,1, 7,21, 0,13,40.00,50.00,SummerDesignDay
8,17.542913447755134
10,98393995.03917323
321,19239821.852122275
2,1, 7,21, 0,13,50.00,60.00,SummerDesignDay
8,17.59724609886134
10,98700906.91002073
321,13903547.7388721
2,1, 7,21, 0,13, 0.00,60.00,SummerDesignDay
555,23.998539704654406
595,23.99944061194493
635,23.87401679160365
675,23.999381552096268
715,23.998988478630577
2,1, 7,21, 0,14, 0.00,10.00,SummerDesignDay
8,17.6311450462694
10,98902165.71761512
321,14655064.905008227
2,1, 7,21, 0,14,10.00,20.00,SummerDesignDay
8,17.665000449016245
10,99102880.05194664
321,23802077.401090336
2,1, 7,21, 0,14,20.00,30.00,SummerDesignDay
8,17.698812743128934
10,99298415.33957646
321,23833047.775153378
2,1, 7,21, 0,14,30.00,40.00,SummerDesignDay
8,17.732582050940107
10,99490750.1892364
321,23875279.50583305
2,1, 7,21, 0,14,40.00,50.00,SummerDesignDay
8,17.766307345121004
10,99681650.74661248
321,23917933.47291162
2,1, 7,21, 0,14,50.00,60.00,SummerDesignDay
8,17.79999023167558
10,99871613.84768135
321,18404597.157106859
2,1, 7,21, 0,14, 0.00,60.00,SummerDesignDay
555,23.9980392489491
595,23.99950797736022
635,23.87418350596808
675,23.999473921133029
715,23.998965341356294
2,1, 7,21, 0,15, 0.00,10.00,SummerDesignDay
8,17.79999023167558
10,100124479.81599295
321,23720756.500296903
2,1, 7,21, 0,15,10.00,20.00,SummerDesignDay
8,17.79999023167558
10,100462843.80925624
321,24508148.90770535
2,1, 7,21, 0,15,20.00,30.00,SummerDesignDay
8,17.79999023167558
10,100472166.82909651
321,24480599.738763058
2,1, 7,21, 0,15,30.00,40.00,SummerDesignDay
8,17.79999023167558
10,100484201.81019807
321,24454356.12672053
2,1, 7,21, 0,15,40.00,50.00,SummerDesignDay
8,17.79999023167558
10,100493708.52762234
321,24427523.815097389
2,1, 7,21, 0,15,50.00,60.00,SummerDesignDay
8,17.79999023167558
10,100502439.44728755
321,26172167.237192945
2,1, 7,21, 0,15, 0.00,60.00,SummerDesignDay
555,23.997800334903926
595,23.999457773591105
635,23.874203793449614
675,23.999453954620596
715,23.998787438377748
2,1, 7,21, 0,16, 0.00,10.00,SummerDesignDay
8,17.759562446305357
10,100294931.51741998
321,42619795.28407428
2,1, 7,21, 0,16,10.00,20.00,SummerDesignDay
8,17.71907809634183
10,100706523.74120738
321,45257994.05800008
2,1, 7,21, 0,16,20.00,30.00,SummerDesignDay
8,17.67853788661001
10,100488742.16382773
321,41600054.41988003
2,1, 7,21, 0,16,30.00,40.00,SummerDesignDay
8,17.63791796367351
10,100275222.07802406
321,35761463.08898768
2,1, 7,21, 0,16,40.00,50.00,SummerDesignDay
8,17.59724609886134
10,100065074.35024686
321,35733210.36740676
2,1, 7,21, 0,16,50.00,60.00,SummerDesignDay
8,17.55650676726033
10,99855707.08441496
321,35701114.111421387
2,1, 7,21, 0,16, 0.00,60.00,SummerDesignDay
555,23.997641128171386
595,23.99919395302672
635,23.87401901863862
675,23.999381261276754
715,23.998623616930528
2,1, 7,21, 0,17, 0.00,10.00,SummerDesignDay
8,17.50209486331892
10,95555664.1449781
321,34594114.972623478
2,1, 7,21, 0,17,10.00,20.00,SummerDesignDay
8,17.447570789624618
10,95103618.68692957
321,36858610.531082268
2,1, 7,21, 0,17,20.00,30.00,SummerDesignDay
8,17.392929544208135
10,94851855.17366603
321,41450372.44742914
2,1, 7,21, 0,17,30.00,40.00,SummerDesignDay
8,17.33818013976614
10,94577041.86155674
321,41519128.941403578
2,1, 7,21, 0,17,40.00,50.00,SummerDesignDay
8,17.283317298559309
10,94338778.51368669
321,41597052.31075146
2,1, 7,21, 0,17,50.00,60.00,SummerDesignDay
8,17.22833552437677
10,94096046.28611854
321,36349579.96891134
2,1, 7,21, 0,17, 0.00,60.00,SummerDesignDay
555,23.997393451296515
595,23.99888827185815
635,23.875912030328349
675,23.99954158162041
715,23.99863648580593
2,1, 7,21, 0,18, 0.00,10.00,SummerDesignDay
8,17.159453019160176
10,78884840.45652144
321,39685859.68733236
2,1, 7,21, 0,18,10.00,20.00,SummerDesignDay
8,17.090391773337136
10,78930254.9215668
321,45014834.09874907
2,1, 7,21, 0,18,20.00,30.00,SummerDesignDay
8,17.021151077964786
10,78465015.07591462
321,54821471.26219047
2,1, 7,21, 0,18,30.00,40.00,SummerDesignDay
8,16.951729380464653
10,78120036.05544771
321,40098298.0785146
2,1, 7,21, 0,18,40.00,50.00,SummerDesignDay
8,16.882126503829249
10,77760350.02407964
321,59778676.67830867
2,1, 7,21, 0,18,50.00,60.00,SummerDesignDay
8,16.812341807494034
10,77432881.8920429
321,40141986.17244056
2,1, 7,21, 0,18, 0.00,60.00,SummerDesignDay
555,23.997503264026745
595,23.998532271098129
635,23.873931211207226
675,23.99986024191125
715,23.998808383015285
2,1, 7,21, 0,19, 0.00,10.00,SummerDesignDay
8,16.707321072823203
10,72161487.99684417
321,39530368.2801028
2,1, 7,21, 0,19,10.00,20.00,SummerDesignDay
8,16.601881826644556
10,71466934.99536784
321,59778676.67830867
2,1, 7,21, 0,19,20.00,30.00,SummerDesignDay
8,16.496030555252849
10,71012105.33254195
321,39543161.503354828
2,1, 7,21, 0,19,30.00,40.00,SummerDesignDay
8,16.389760181474104
10,70390424.91315815
321,39464060.602513227
2,1, 7,21, 0,19,40.00,50.00,SummerDesignDay
8,16.283067654262039
10,69876072.10089346
321,59778676.67830867
2,1, 7,21, 0,19,50.00,60.00,SummerDesignDay
8,16.17595057957811
10,69313315.87770806
321,39541714.10311365
2,1, 7,21, 0,19, 0.00,60.00,SummerDesignDay
555,23.99800625332861
595,23.997054465521118
635,23.878808519457725
675,23.999913590563268
715,23.999498618626729
2,1, 7,21, 0,20, 0.00,10.00,SummerDesignDay
8,16.097123145563505
10,68054914.03909569
321,27099248.243171056
2,1, 7,21, 0,20,10.00,20.00,SummerDesignDay
8,16.018070242471564
10,67338074.20086262
321,24667417.36743486
2,1, 7,21, 0,20,20.00,30.00,SummerDesignDay
8,15.938779752340516
10,66871350.69788742
321,24640671.64759739
2,1, 7,21, 0,20,30.00,40.00,SummerDesignDay
8,15.85926152575189
10,66453874.57260182
321,25193307.314497524
2,1, 7,21, 0,20,40.00,50.00,SummerDesignDay
8,15.779503718563929
10,66030159.84691202
321,28428049.238933017
2,1, 7,21, 0,20,50.00,60.00,SummerDesignDay
8,15.699515709672767
10,65599357.064160797
321,28434620.47328033
2,1, 7,21, 0,20, 0.00,60.00,SummerDesignDay
555,23.999122135193415
595,23.99702667740591
635,23.88357611666864
675,23.999837576458206
715,23.99988777138243
2,1, 7,21, 0,21, 0.00,10.00,SummerDesignDay
8,15.63389147320404
10,60577144.75922751
321,28442965.443000046
2,1, 7,21, 0,21,10.00,20.00,SummerDesignDay
8,15.56810827419793
10,60117719.89944697
321,28451424.3541164
2,1, 7,21, 0,21,20.00,30.00,SummerDesignDay
8,15.502170882753524
10,59737045.87628855
321,28459905.808274378
2,1, 7,21, 0,21,30.00,40.00,SummerDesignDay
8,15.436068032613852
10,59351454.22906836
321,28468408.6753432
2,1, 7,21, 0,21,40.00,50.00,SummerDesignDay
8,15.369804371206009
10,58962368.26816151
321,28476931.97358006
2,1, 7,21, 0,21,50.00,60.00,SummerDesignDay
8,15.303384603594449
10,58572313.44972395
321,28485474.71063138
2,1, 7,21, 0,21, 0.00,60.00,SummerDesignDay
555,23.99947707548968
595,23.996214012264074
635,23.88481460644815
675,23.999831220949479
715,23.999952141174615
2,1, 7,21, 0,22, 0.00,10.00,SummerDesignDay
8,15.236797685071274
10,38988924.58252378
321,5109005.298338121
2,1, 7,21, 0,22,10.00,20.00,SummerDesignDay
8,15.170047891787942
10,38258146.27770265
321,15357139.278848267
2,1, 7,21, 0,22,20.00,30.00,SummerDesignDay
8,15.103134826860483
10,38085221.963196467
321,20385951.857857106
2,1, 7,21, 0,22,30.00,40.00,SummerDesignDay
8,15.036063385178485
10,37902333.3082929
321,6275806.74170364
2,1, 7,21, 0,22,40.00,50.00,SummerDesignDay
8,14.968821767219835
10,37720040.62449134
321,14077170.036984032
2,1, 7,21, 0,22,50.00,60.00,SummerDesignDay
8,14.90141525878635
10,37553883.37537554
321,20378817.35361197
2,1, 7,21, 0,22, 0.00,60.00,SummerDesignDay
555,23.508919013537839
595,23.997017642666465
635,23.88477244541446
675,23.99984947609673
715,23.36775606882618
2,1, 7,21, 0,23, 0.00,10.00,SummerDesignDay
8,14.848873673278373
10,28749180.984523085
321,5036352.2093338719
2,1, 7,21, 0,23,10.00,20.00,SummerDesignDay
8,14.796237168136719
10,28463364.450839409
321,15004963.35451511
2,1, 7,21, 0,23,20.00,30.00,SummerDesignDay
8,14.743494321455645
10,28282965.12285009
321,20102234.5581222
2,1, 7,21, 0,23,30.00,40.00,SummerDesignDay
8,14.690649975253665
10,28101855.932644339
321,12000.0
2,1, 7,21, 0,23,40.00,50.00,SummerDesignDay
8,14.637704281233117
10,27923880.354025909
321,19982368.300639254
2,1, 7,21, 0,23,50.00,60.00,SummerDesignDay
8,14.584656914839757
10,27980560.603962397
321,20148444.22115747
2,1, 7,21, 0,23, 0.00,60.00,SummerDesignDay
555,22.69341726721667
595,23.997754587071268
635,23.884564932134269
675,24.000368636487314
715,22.47962231376123
2,1, 7,21, 0,24, 0.00,10.00,SummerDesignDay
8,14.531507212058875
10,20666171.86899013
321,12000.0
2,1, 7,21, 0,24,10.00,20.00,SummerDesignDay
8,14.47825496413355
10,20268442.127016639
321,47333.897389508995
2,1, 7,21, 0,24,20.00,30.00,SummerDesignDay
8,14.4249000133173
10,20160072.95757297
321,17965469.63640994
2,1, 7,21, 0,24,30.00,40.00,SummerDesignDay
8,14.371447531304272
10,20081501.568071136
321,447148.3923600035
2,1, 7,21, 0,24,40.00,50.00,SummerDesignDay
8,14.31788619902223
10,19988176.242749659
321,18216640.8861394
2,1, 7,21, 0,24,50.00,60.00,SummerDesignDay
8,14.264220970176066
10,19898523.133524885
321,431789.3756540349
2,1, 7,21, 0,24, 0.00,60.00,SummerDesignDay
555,22.0743389517217
595,23.998494791066589
635,23.883130118592875
675,23.545407751064646
715,21.65099295561447
3,1, 7,21, 0,SummerDesignDay
556,51.54153020689867,44.82177522252923,10,60,57.738221032807029, 6,60
596,61.35767889535256,57.07872563270776,15,10,66.47404080972987,19,60
636,60.31643708260884,54.384778177890058, 1,10,66.50364087527515,18,60
676,47.8347122762515,44.18126920528416,22,60,53.305157643160729, 7,10
716,50.39209557569438,44.402493310295749,10,60,60.12806032698541, 6,20
4,1, 7
7,22.2505,16.5,21, 5,60,28.9,21,14,60
1,FORT MCMURRAY AP ANN HTG 99.6% CONDNS DB,  56.65,-111.22,  -7.00, 369.10
2,1, 1,21, 0, 1, 0.00,10.00,WinterDesignDay
8,-36.2
10,13070390.018346975
321,343347567.80270698
2,1, 1,21, 0, 1,10.00,20.00,WinterDesignDay
8,-36.2
10,13070390.018346975
321,344903046.98320147
2,1, 1,21, 0, 1,20.00,30.00,WinterDesignDay
8,-36.2
10,13070390.018346975
321,361951396.8367919
2,1, 1,21, 0, 1,30.00,40.00,WinterDesignDay
8,-36.2
10,13070390.018346975
321,345199524.3544605
2,1, 1,21, 0, 1,40.00,50.00,WinterDesignDay
8,-36.2
10,13070390.018346975
321,370525783.9453378
2,1, 1,21, 0, 1,50.00,60.00,WinterDesignDay
8,-36.2
10,13070390.018346975
321,349385709.3801306
2,1, 1,21, 0, 1, 0.00,60.00,WinterDesignDay
555,17.999983021422059
595,21.99918865720909
635,23.699004018235724
675,18.2583458879663
715,17.99998843931392
2,1, 1,21, 0, 2, 0.00,10.00,WinterDesignDay
8,-36.2
10,9120204.957196182
321,349411020.8729588
2,1, 1,21, 0, 2,10.00,20.00,WinterDesignDay
8,-36.2
10,9120204.957196182
321,359077467.9041429
2,1, 1,21, 0, 2,20.00,30.00,WinterDesignDay
8,-36.2
10,9120204.957196182
321,346192277.04176506
2,1, 1,21, 0, 2,30.00,40.00,WinterDesignDay
8,-36.2
10,9120204.957196182
321,346427956.30501917
2,1, 1,21, 0, 2,40.00,50.00,WinterDesignDay
8,-36.2
10,9120204.957196182
321,353055677.3648369
2,1, 1,21, 0, 2,50.00,60.00,WinterDesignDay
8,-36.2
10,9120204.957196182
321,357358142.6507319
2,1, 1,21, 0, 2, 0.00,60.00,WinterDesignDay
555,17.999987314599868
595,20.922792751524253
635,23.013393226438909
675,18.00000042805176
715,17.99999304846106
2,1, 1,21, 0, 3, 0.00,10.00,WinterDesignDay
8,-36.2
10,9120204.957196182
321,347026993.16402736
2,1, 1,21, 0, 3,10.00,20.00,WinterDesignDay
8,-36.2
10,9120204.957196182
321,347190390.2336719
2,1, 1,21, 0, 3,20.00,30.00,WinterDesignDay
8,-36.2
10,9120204.957196182
321,356597256.70586368
2,1, 1,21, 0, 3,30.00,40.00,WinterDesignDay
8,-36.2
10,9120204.957196182
321,355186937.1745885
2,1, 1,21, 0, 3,40.00,50.00,WinterDesignDay
8,-36.2
10,9120204.957196182
321,347580465.9671925
2,1, 1,21, 0, 3,50.00,60.00,WinterDesignDay
8,-36.2
10,9120204.957196182
321,347684245.66838416
2,1, 1,21, 0, 3, 0.00,60.00,WinterDesignDay
555,17.99998941324265
595,19.72222145325983
635,22.410722535403
675,17.99998538795113
715,17.999991889438737
2,1, 1,21, 0, 4, 0.00,10.00,WinterDesignDay
8,-36.2
10,9120204.957196182
321,359043622.17266729
2,1, 1,21, 0, 4,10.00,20.00,WinterDesignDay
8,-36.2
10,9120204.957196182
321,353618275.82626816
2,1, 1,21, 0, 4,20.00,30.00,WinterDesignDay
8,-36.2
10,9120204.957196182
321,347925454.2285492
2,1, 1,21, 0, 4,30.00,40.00,WinterDesignDay
8,-36.2
10,9120204.957196182
321,347989170.2993816
2,1, 1,21, 0, 4,40.00,50.00,WinterDesignDay
8,-36.2
10,9120204.957196182
321,360794405.12673279
2,1, 1,21, 0, 4,50.00,60.00,WinterDesignDay
8,-36.2
10,9120204.957196182
321,352411384.21694758
2,1, 1,21, 0, 4, 0.00,60.00,WinterDesignDay
555,17.999992212598007
595,19.3313613721749
635,22.147981737496605
675,17.99998349859222
715,17.99999217500456
2,1, 1,21, 0, 5, 0.00,10.00,WinterDesignDay
8,-36.2
10,9120204.957196182
321,348136219.30851498
2,1, 1,21, 0, 5,10.00,20.00,WinterDesignDay
8,-36.2
10,9120204.957196182
321,348174038.2003935
2,1, 1,21, 0, 5,20.00,30.00,WinterDesignDay
8,-36.2
10,9120204.957196182
321,362084315.8589819
2,1, 1,21, 0, 5,30.00,40.00,WinterDesignDay
8,-36.2
10,9120204.957196182
321,351454705.49649199
2,1, 1,21, 0, 5,40.00,50.00,WinterDesignDay
8,-36.2
10,9120204.957196182
321,348264108.35594406
2,1, 1,21, 0, 5,50.00,60.00,WinterDesignDay
8,-36.2
10,9120204.957196182
321,348287123.36362996
2,1, 1,21, 0, 5, 0.00,60.00,WinterDesignDay
555,17.999993471904636
595,19.177887733101686
635,22.02336464418043
675,17.999987764004858
715,17.99999227029581
2,1, 1,21, 0, 6, 0.00,10.00,WinterDesignDay
8,-36.2
10,9120204.957196182
321,363064241.00399038
2,1, 1,21, 0, 6,10.00,20.00,WinterDesignDay
8,-36.2
10,9120204.957196182
321,350681123.7416254
2,1, 1,21, 0, 6,20.00,30.00,WinterDesignDay
8,-36.2
10,9120204.957196182
321,348339365.5087201
2,1, 1,21, 0, 6,30.00,40.00,WinterDesignDay
8,-36.2
10,9120204.957196182
321,348354578.98920306
2,1, 1,21, 0, 6,40.00,50.00,WinterDesignDay
8,-36.2
10,9120204.957196182
321,363824392.7120964
2,1, 1,21, 0, 6,50.00,60.00,WinterDesignDay
8,-36.2
10,9120204.957196182
321,350051385.89901658
2,1, 1,21, 0, 6, 0.00,60.00,WinterDesignDay
555,17.999994054702865
595,19.112295091165654
635,21.963595910994106
675,17.99999074720508
715,17.99999231022738
2,1, 1,21, 0, 7, 0.00,10.00,WinterDesignDay
8,-36.2
10,11190957.239964689
321,391709853.4631191
2,1, 1,21, 0, 7,10.00,20.00,WinterDesignDay
8,-36.2
10,11190957.23996469
321,352940579.89423647
2,1, 1,21, 0, 7,20.00,30.00,WinterDesignDay
8,-36.2
10,11190957.23996469
321,382485541.6093928
2,1, 1,21, 0, 7,30.00,40.00,WinterDesignDay
8,-36.2
10,11190957.23996469
321,380011774.53850468
2,1, 1,21, 0, 7,40.00,50.00,WinterDesignDay
8,-36.2
10,11190957.23996469
321,358194504.20309826
2,1, 1,21, 0, 7,50.00,60.00,WinterDesignDay
8,-36.2
10,11190957.23996469
321,378271852.25102278
2,1, 1,21, 0, 7, 0.00,60.00,WinterDesignDay
555,17.99999502769031
595,19.309049180032916
635,22.19218988071312
675,17.99999340496413
715,19.959899011434066
2,1, 1,21, 0, 8, 0.00,10.00,WinterDesignDay
8,-36.2
10,25326092.387558398
321,505661804.3696666
2,1, 1,21, 0, 8,10.00,20.00,WinterDesignDay
8,-36.2
10,25326092.387558398
321,451337287.4760792
2,1, 1,21, 0, 8,20.00,30.00,WinterDesignDay
8,-36.2
10,25326092.387558398
321,437533051.76213309
2,1, 1,21, 0, 8,30.00,40.00,WinterDesignDay
8,-36.2
10,25326092.387558398
321,430468202.6922942
2,1, 1,21, 0, 8,40.00,50.00,WinterDesignDay
8,-36.2
10,25395951.53918984
321,430811332.99130496
2,1, 1,21, 0, 8,50.00,60.00,WinterDesignDay
8,-36.2
10,25411828.742739455
321,430816333.1798706
2,1, 1,21, 0, 8, 0.00,60.00,WinterDesignDay
555,19.951154841099507
595,20.52545217891107
635,23.37192926115628
675,19.932627525070889
715,21.95155118689131
2,1, 1,21, 0, 9, 0.00,10.00,WinterDesignDay
8,-36.2
10,53531110.998469639
321,475688016.6753855
2,1, 1,21, 0, 9,10.00,20.00,WinterDesignDay
8,-36.2
10,53553818.24990886
321,417313797.7029392
2,1, 1,21, 0, 9,20.00,30.00,WinterDesignDay
8,-36.2
10,53565135.08713845
321,405383247.96455058
2,1, 1,21, 0, 9,30.00,40.00,WinterDesignDay
8,-36.2
10,53549657.83156708
321,418957110.7870431
2,1, 1,21, 0, 9,40.00,50.00,WinterDesignDay
8,-36.2
10,53566384.11244056
321,401801122.1643529
2,1, 1,21, 0, 9,50.00,60.00,WinterDesignDay
8,-36.2
10,53566740.94721476
321,400248118.88349047
2,1, 1,21, 0, 9, 0.00,60.00,WinterDesignDay
555,21.955524563251474
595,21.993758269924798
635,23.9061442421487
675,21.931153367389585
715,21.999746317044829
2,1, 1,21, 0,10, 0.00,10.00,WinterDesignDay
8,-36.2
10,70863022.98085888
321,364238357.7847711
2,1, 1,21, 0,10,10.00,20.00,WinterDesignDay
8,-36.2
10,70863022.98085888
321,369866054.8177142
2,1, 1,21, 0,10,20.00,30.00,WinterDesignDay
8,-36.2
10,70863022.98085888
321,371626641.73496147
2,1, 1,21, 0,10,30.00,40.00,WinterDesignDay
8,-36.2
10,70863022.98085888
321,361690804.27019956
2,1, 1,21, 0,10,40.00,50.00,WinterDesignDay
8,-36.2
10,70863022.98085888
321,359289483.28010186
2,1, 1,21, 0,10,50.00,60.00,WinterDesignDay
8,-36.2
10,70863022.98085888
321,358964023.1861687
2,1, 1,21, 0,10, 0.00,60.00,WinterDesignDay
555,21.99999944643358
595,21.998809295683317
635,23.659902136357787
675,22.030592985792528
715,22.029703749645625
2,1, 1,21, 0,11, 0.00,10.00,WinterDesignDay
8,-36.2
10,70863022.98085888
321,353114365.9937254
2,1, 1,21, 0,11,10.00,20.00,WinterDesignDay
8,-36.2
10,70863022.98085888
321,352836455.8694017
2,1, 1,21, 0,11,20.00,30.00,WinterDesignDay
8,-36.2
10,70863022.98085888
321,357317615.021165
2,1, 1,21, 0,11,30.00,40.00,WinterDesignDay
8,-36.2
10,70863022.98085888
321,358061746.64484086