Program Version,EnergyPlus, Version 8.9.0-eba93e8e1b, YMD=2019.03.20 20:07
1,5,Environment Title[],Latitude[deg],Longitude[deg],Time Zone[],Elevation[m]
2,8,Day of Simulation[],Month[],Day of Month[],DST Indicator[1=yes 0=no],Hour[],StartMinute[],EndMinute[],DayType
3,5,Cumulative Day of Simulation[],Month[],Day of Month[],DST Indicator[1=yes 0=no],DayType  ! When Daily Report Variables Requested
4,2,Cumulative Days of Simulation[],Month[]  ! When Monthly Report Variables Requested
5,1,Cumulative Days of Simulation[] ! When Run Period Report Variables Requested
6,1,Calendar Year of Simulation[] ! When Annual Report Variables Requested
7,9,Environment,Site Outdoor Air Drybulb Temperature [C] !Monthly [Value,Min,Day,Hour,Minute,Max,Day,Hour,Minute]
8,1,Environment,Site Outdoor Air Wetbulb Temperature [C] !TimeStep
555,1,SP-ELECTRICAL/MECHANICAL ROOM-SCH-C-SPACE FUNCTION SYS-3 FLR-1 SCH-C HPLCMT-CORE ZN,Zone Air Temperature [C] !Hourly
556,7,SP-ELECTRICAL/MECHANICAL ROOM-SCH-C-SPACE FUNCTION SYS-3 FLR-1 SCH-C HPLCMT-CORE ZN,Zone Air Relative Humidity [%] !Daily [Value,Min,Hour,Minute,Max,Hour,Minute]
595,1,SP-ELECTRICAL/MECHANICAL ROOM-SCH-D-SPACE FUNCTION SYS-3 FLR-1 SCH-D HPLCMT-SOUTH ZN,Zone Air Temperature [C] !Hourly
596,7,SP-ELECTRICAL/MECHANICAL ROOM-SCH-D-SPACE FUNCTION SYS-3 FLR-1 SCH-D HPLCMT-SOUTH ZN,Zone Air Relative Humidity [%] !Daily [Value,Min,Hour,Minute,Max,Hour,Minute]
635,1,SP-FOOD PREPARATION AREA-SPACE FUNCTION SYS-3 FLR-1 SCH-B HPLCMT-EAST ZN,Zone Air Temperature [C] !Hourly
636,7,SP-FOOD PREPARATION AREA-SPACE FUNCTION SYS-3 FLR-1 SCH-B HPLCMT-EAST ZN,Zone Air Relative Humidity [%] !Daily [Value,Min,Hour,Minute,Max,Hour,Minute]
675,1,SP-GUEST ROOM-SPACE FUNCTION SYS-1 FLR-1 SCH-F HPLCMT-NORTH ZN,Zone Air Temperature [C] !Hourly
676,7,SP-GUEST ROOM-SPACE FUNCTION SYS-1 FLR-1 SCH-F HPLCMT-NORTH ZN,Zone Air Relative Humidity [%] !Daily [Value,Min,Hour,Minute,Max,Hour,Minute]
715,1,SP-LABORATORY - CLASSROOMS-SPACE FUNCTION SYS-3 FLR-1 SCH-D HPLCMT-WEST ZN,Zone Air Temperature [C] !Hourly
716,7,SP-LABORATORY - CLASSROOMS-SPACE FUNCTION SYS-3 FLR-1 SCH-D HPLCMT-WEST ZN,Zone Air Relative Humidity [%] !Daily [Value,Min,Hour,Minute,Max,Hour,Minute]
10,1,Electricity:Facility [J] !TimeStep
321,1,Gas:Facility [J] !TimeStep
End of Data Dictionary
1,FORT MCMURRAY AP ANN CLG .4% CONDNS DB=>MWB,  56.65,-111.22,  -7.00, 369.10
2,1, 7,21, 0, 1, 0.00,10.00,SummerDesignDay
8,14.218136923962174
10,33831996.38456705
321,15629177.972546379
2,1, 7,21, 0, 1,10.00,20.00,SummerDesignDay
8,14.171982153293495
10,33484968.014987407
321,19526750.899055315
2,1, 7,21, 0, 1,20.00,30.00,SummerDesignDay
8,14.125744780286427
10,33285695.633077809
321,23185288.243365505
2,1, 7,21, 0, 1,30.00,40.00,SummerDesignDay
8,14.079436086331978
10,33195423.54751148
321,23335675.27780506
2,1, 7,21, 0, 1,40.00,50.00,SummerDesignDay
8,14.033050387896898
10,33105259.72620325
321,14862216.452128027
2,1, 7,21, 0, 1,50.00,60.00,SummerDesignDay
8,13.986581233564835
10,32992569.46109216
321,20951848.12640058
2,1, 7,21, 0, 1, 0.00,60.00,SummerDesignDay
555,22.429742953941206
595,22.467744894804019
635,23.99837981880454
675,23.824911039477855
715,20.440762432271627
2,1, 7,21, 0, 2, 0.00,10.00,SummerDesignDay
8,13.95555882260429
10,18420778.859531017
321,19891123.93985672
2,1, 7,21, 0, 2,10.00,20.00,SummerDesignDay
8,13.924507755336454
10,18365657.09858048
321,12506801.916829864
2,1, 7,21, 0, 2,20.00,30.00,SummerDesignDay
8,13.893416042989206
10,18365657.09858048
321,11305145.896596263
2,1, 7,21, 0, 2,30.00,40.00,SummerDesignDay
8,13.862289589689029
10,18365657.09858048
321,21197586.036116244
2,1, 7,21, 0, 2,40.00,50.00,SummerDesignDay
8,13.831134407608739
10,18365657.09858048
321,11433303.800794917
2,1, 7,21, 0, 2,50.00,60.00,SummerDesignDay
8,13.799938415548118
10,18365657.09858048
321,11542593.012955513
2,1, 7,21, 0, 2, 0.00,60.00,SummerDesignDay
555,22.05379058164605
595,22.00131591435495
635,23.806860304185965
675,23.731785330327555
715,19.845685993371139
2,1, 7,21, 0, 3, 0.00,10.00,SummerDesignDay
8,13.776521671948676
10,7966879.330764714
321,10621133.10337489
2,1, 7,21, 0, 3,10.00,20.00,SummerDesignDay
8,13.753085235778466
10,7966879.330764714
321,10507577.475777409
2,1, 7,21, 0, 3,20.00,30.00,SummerDesignDay
8,13.729636002354969
10,7966879.330764714
321,10570102.982199265
2,1, 7,21, 0, 3,30.00,40.00,SummerDesignDay
8,13.706147375533054
10,7966879.330764714
321,1961725.5167258825
2,1, 7,21, 0, 3,40.00,50.00,SummerDesignDay
8,13.682651961920304
10,7966879.330764714
321,10648719.675878633
2,1, 7,21, 0, 3,50.00,60.00,SummerDesignDay
8,13.659136670643687
10,7966879.330764714
321,10723931.028888982
2,1, 7,21, 0, 3, 0.00,60.00,SummerDesignDay
555,21.769885924273038
595,21.690955328306374
635,22.221324352636385
675,23.512901698966237
715,19.480594755749224
2,1, 7,21, 0, 4, 0.00,10.00,SummerDesignDay
8,13.63560137410855
10,7368161.822920777
321,2133729.938382221
2,1, 7,21, 0, 4,10.00,20.00,SummerDesignDay
8,13.612040802606578
10,7368161.822920777
321,10433305.726810679
2,1, 7,21, 0, 4,20.00,30.00,SummerDesignDay
8,13.58846620506876
10,7368161.822920777
321,2248398.858976315
2,1, 7,21, 0, 4,30.00,40.00,SummerDesignDay
8,13.56487178447336
10,7368161.822920777
321,10567431.630847048
2,1, 7,21, 0, 4,40.00,50.00,SummerDesignDay
8,13.541257354069103
10,7368161.822920777
321,2363067.358477368
2,1, 7,21, 0, 4,50.00,60.00,SummerDesignDay
8,13.517617463812285
10,7368161.822920777
321,10698808.737094708
2,1, 7,21, 0, 4, 0.00,60.00,SummerDesignDay
555,21.41029669750455
595,21.32330278488794
635,20.629980126701736
675,23.114025437661455
715,19.135861378767716
2,1, 7,21, 0, 5, 0.00,10.00,SummerDesignDay
8,13.50185415824011
10,7368161.822920777
321,2460544.862828985
2,1, 7,21, 0, 5,10.00,20.00,SummerDesignDay
8,13.486076034032447
10,7368161.822920777
321,10792384.882651387
2,1, 7,21, 0, 5,20.00,30.00,SummerDesignDay
8,13.470289340350983
10,7368161.822920777
321,2536991.211584623
2,1, 7,21, 0, 5,30.00,40.00,SummerDesignDay
8,13.454493322631063
10,7368161.822920777
321,10883229.840939088
2,1, 7,21, 0, 5,40.00,50.00,SummerDesignDay
8,13.438688835118548
10,7368161.822920777
321,2613436.182883091
2,1, 7,21, 0, 5,50.00,60.00,SummerDesignDay
8,13.422888173889437
10,7368161.822920777
321,10973860.60033727
2,1, 7,21, 0, 5, 0.00,60.00,SummerDesignDay
555,21.105425219237604
595,21.025360775109666
635,20.061486641582034
675,22.788901884205388
715,18.862425429957566
2,1, 7,21, 0, 6, 0.00,10.00,SummerDesignDay
8,13.438688835118548
10,7368161.822920777
321,2621088.5696507205
2,1, 7,21, 0, 6,10.00,20.00,SummerDesignDay
8,13.454493322631063
10,7368161.822920777
321,11216065.012376147
2,1, 7,21, 0, 6,20.00,30.00,SummerDesignDay
8,13.470289340350983
10,7368161.822920777
321,11196678.77204511
2,1, 7,21, 0, 6,30.00,40.00,SummerDesignDay
8,13.486076034032447
10,7368161.822920777
321,11184617.822032592
2,1, 7,21, 0, 6,40.00,50.00,SummerDesignDay
8,13.50185415824011
10,7368161.822920777
321,2468199.7794857618
2,1, 7,21, 0, 6,50.00,60.00,SummerDesignDay
8,13.517617463812285
10,7368161.822920777
321,11062024.785867846
2,1, 7,21, 0, 6, 0.00,60.00,SummerDesignDay
555,20.89457333112294
595,20.82506422783935
635,19.830771296316184
675,22.680498001102398
715,18.745556051367204
2,1, 7,21, 0, 7, 0.00,10.00,SummerDesignDay
8,13.572736920571789
10,7966879.330764714
321,11724615.321091041
2,1, 7,21, 0, 7,10.00,20.00,SummerDesignDay
8,13.627748229152554
10,7966879.330764714
321,17458220.207305969
2,1, 7,21, 0, 7,20.00,30.00,SummerDesignDay
8,13.682651961920304
10,7966879.330764714
321,15278676.754896362
2,1, 7,21, 0, 7,30.00,40.00,SummerDesignDay
8,13.737448093244995
10,7966879.330764714
321,11394257.333747318
2,1, 7,21, 0, 7,40.00,50.00,SummerDesignDay
8,13.792137011831216
10,7966879.330764714
321,11279653.935843096
2,1, 7,21, 0, 7,50.00,60.00,SummerDesignDay
8,13.846719282840333
10,7966879.330764714
321,12832218.959732358
2,1, 7,21, 0, 7, 0.00,60.00,SummerDesignDay
555,20.82425065385158
595,20.760975958817764
635,19.92412868510465
675,22.854143109499934
715,18.95807150240118
2,1, 7,21, 0, 8, 0.00,10.00,SummerDesignDay
8,13.978831900527043
10,9164314.346452589
321,37184962.19885215
2,1, 7,21, 0, 8,10.00,20.00,SummerDesignDay
8,14.110321014287419
10,9164314.346452589
321,22091571.986458549
2,1, 7,21, 0, 8,20.00,30.00,SummerDesignDay
8,14.241191509616986
10,9164314.346452589
321,17225215.104263836
2,1, 7,21, 0, 8,30.00,40.00,SummerDesignDay
8,14.371447531304272
10,9164314.346452589
321,21448545.46161567
2,1, 7,21, 0, 8,40.00,50.00,SummerDesignDay
8,14.501093766564925
10,9164314.346452589
321,12191632.088577345
2,1, 7,21, 0, 8,50.00,60.00,SummerDesignDay
8,14.630134792273804
10,8886437.970548667
321,19482050.54558761
2,1, 7,21, 0, 8, 0.00,60.00,SummerDesignDay
555,20.949207158391827
595,20.88294035413207
635,20.433588802255327
675,23.217942442462645
715,20.151289009173408
2,1, 7,21, 0, 9, 0.00,10.00,SummerDesignDay
8,14.773641492809972
10,20700912.86114398
321,69832688.92755105
2,1, 7,21, 0, 9,10.00,20.00,SummerDesignDay
8,14.91640948124148
10,20737258.39172435
321,46887191.9892851
2,1, 7,21, 0, 9,20.00,30.00,SummerDesignDay
8,15.05843890714102
10,20751430.656239425
321,30011946.928687358
2,1, 7,21, 0, 9,30.00,40.00,SummerDesignDay
8,15.199735893563798
10,20854785.27862652
321,30041141.886778017
2,1, 7,21, 0, 9,40.00,50.00,SummerDesignDay
8,15.340306256439395
10,20954867.6113594
321,31183536.67104008
2,1, 7,21, 0, 9,50.00,60.00,SummerDesignDay
8,15.48015101768072
10,21051846.301662875
321,32064440.452678704
2,1, 7,21, 0, 9, 0.00,60.00,SummerDesignDay
555,22.237122383369507
595,22.116827366848566
635,21.46056231945563
675,23.659919961517077
715,22.401280822618764
2,1, 7,21, 0,10, 0.00,10.00,SummerDesignDay
8,15.60467292907716
10,59867440.181880068
321,32862587.72975003
2,1, 7,21, 0,10,10.00,20.00,SummerDesignDay
8,15.72862731650033
10,62559966.23405502
321,32930656.031318666
2,1, 7,21, 0,10,20.00,30.00,SummerDesignDay
8,15.852017409284228
10,65642526.86964185
321,32916508.98024149
2,1, 7,21, 0,10,30.00,40.00,SummerDesignDay
8,15.974848118364367
10,67233854.4402457
321,32937573.955930745
2,1, 7,21, 0,10,40.00,50.00,SummerDesignDay
8,16.097123145563505
10,68657743.20977864
321,32907318.45861417
2,1, 7,21, 0,10,50.00,60.00,SummerDesignDay
8,16.218846351168599
10,69139494.97948212
321,32200512.667347589
2,1, 7,21, 0,10, 0.00,60.00,SummerDesignDay
555,23.24998086210738
595,23.134051805932967
635,23.564718277235813
675,23.876880744696945
715,23.945772466240809
2,1, 7,21, 0,11, 0.00,10.00,SummerDesignDay
8,16.325793027093189
10,77056828.0636172
321,31094834.446396095
2,1, 7,21, 0,11,10.00,20.00,SummerDesignDay
8,16.432322158488288
10,80544359.9641524
321,31138509.94573441
2,1, 7,21, 0,11,20.00,30.00,SummerDesignDay
8,16.538424180249178
10,80138483.8457788
321,31146417.221930077
2,1, 7,21, 0,11,30.00,40.00,SummerDesignDay
8,16.644108396469087
10,80888878.66292793
321,31154203.958721695
2,1, 7,21, 0,11,40.00,50.00,SummerDesignDay
8,16.749376736593655
10,81556948.65618876
321,31161853.12338833
2,1, 7,21, 0,11,50.00,60.00,SummerDesignDay
8,16.854232613237156
10,82109838.29818809
321,31169367.752535047
2,1, 7,21, 0,11, 0.00,60.00,SummerDesignDay
555,23.994427597561267
595,23.98823758037832
635,23.99913383934529
675,23.794903658576997
715,23.99792074664901
2,1, 7,21, 0,12, 0.00,10.00,SummerDesignDay
8,16.92390823520069
10,88438609.2712744
321,28913645.766814017
2,1, 7,21, 0,12,10.00,20.00,SummerDesignDay
8,16.99340178950456
10,88820430.59500107
321,29799422.708176424
2,1, 7,21, 0,12,20.00,30.00,SummerDesignDay
8,17.06272006743463
10,89155887.82114153
321,30327751.76176742
2,1, 7,21, 0,12,30.00,40.00,SummerDesignDay
8,17.131853229172639
10,89501530.0625161
321,30327599.536881888
2,1, 7,21, 0,12,40.00,50.00,SummerDesignDay
8,17.200807172194087
10,89832086.76534899
321,30327305.572060028
2,1, 7,21, 0,12,50.00,60.00,SummerDesignDay
8,17.269582116758607
10,90149774.56623017
321,30326982.935387296
2,1, 7,21, 0,12, 0.00,60.00,SummerDesignDay
555,23.99994686032934
595,23.999920786533126
635,23.998855825992679
675,23.785390192908904
715,23.997579619279283
2,1, 7,21, 0,13, 0.00,10.00,SummerDesignDay
8,17.32447360221357
10,90096211.70040462
321,28492446.473631056
2,1, 7,21, 0,13,10.00,20.00,SummerDesignDay
8,17.379251291230806
10,90383139.47377305
321,28277261.73891643
2,1, 7,21, 0,13,20.00,30.00,SummerDesignDay
8,17.433921312061729
10,90663525.37559793
321,28278071.417863814
2,1, 7,21, 0,13,30.00,40.00,SummerDesignDay
8,17.488473222557489
10,90989995.34810438
321,28278837.17110617
2,1, 7,21, 0,13,40.00,50.00,SummerDesignDay
8,17.542913447755134
10,91311853.2390792
321,28279588.862022528
2,1, 7,21, 0,13,50.00,60.00,SummerDesignDay
8,17.59724609886134
10,91591840.48997078
321,28280329.01232313
2,1, 7,21, 0,13, 0.00,60.00,SummerDesignDay
555,23.999992301202786
595,23.99996632798634
635,23.999835526521698
675,23.641500809039269
715,23.997465331513224
2,1, 7,21, 0,14, 0.00,10.00,SummerDesignDay
8,17.6311450462694
10,91765775.87923365
321,30603330.574330655
2,1, 7,21, 0,14,10.00,20.00,SummerDesignDay
8,17.665000449016245
10,91938343.76290097
321,30256931.44709239
2,1, 7,21, 0,14,20.00,30.00,SummerDesignDay
8,17.698812743128934
10,92110036.04109128
321,30263960.04957834
2,1, 7,21, 0,14,30.00,40.00,SummerDesignDay
8,17.732582050940107
10,92282165.67707
321,30271194.299147078
2,1, 7,21, 0,14,40.00,50.00,SummerDesignDay
8,17.766307345121004
10,92454380.27451197
321,30278318.09261616
2,1, 7,21, 0,14,50.00,60.00,SummerDesignDay
8,17.79999023167558
10,92634228.78715389
321,30285323.006953777
2,1, 7,21, 0,14, 0.00,60.00,SummerDesignDay
555,23.999977037991046
595,23.999954423115296
635,24.047314931874767
675,23.546686091704705
715,23.997356944626899
2,1, 7,21, 0,15, 0.00,10.00,SummerDesignDay
8,17.79999023167558
10,92636705.23093166
321,28283588.873554175
2,1, 7,21, 0,15,10.00,20.00,SummerDesignDay
8,17.79999023167558
10,92637636.14326269
321,28079941.532824488
2,1, 7,21, 0,15,20.00,30.00,SummerDesignDay
8,17.79999023167558
10,92637999.78383725
321,28082919.76879647
2,1, 7,21, 0,15,30.00,40.00,SummerDesignDay
8,17.79999023167558
10,92637595.17976518
321,29046848.7260317
2,1, 7,21, 0,15,40.00,50.00,SummerDesignDay
8,17.79999023167558
10,92588339.6553457
321,29443733.74728975
2,1, 7,21, 0,15,50.00,60.00,SummerDesignDay
8,17.79999023167558
10,92595343.00605488
321,29444078.40557118
2,1, 7,21, 0,15, 0.00,60.00,SummerDesignDay
555,23.99995965421786
595,23.99993914787046
635,24.03169097000675
675,23.523891443987539
715,23.99733410740104
2,1, 7,21, 0,16, 0.00,10.00,SummerDesignDay
8,17.759562446305357
10,92061880.1512812
321,23740409.27870062
2,1, 7,21, 0,16,10.00,20.00,SummerDesignDay
8,17.71907809634183
10,91727345.36435969
321,23122597.822881245
2,1, 7,21, 0,16,20.00,30.00,SummerDesignDay
8,17.67853788661001
10,91463063.36125225
321,24940367.614503895
2,1, 7,21, 0,16,30.00,40.00,SummerDesignDay
8,17.63791796367351
10,91202976.49976398
321,24940718.29418038
2,1, 7,21, 0,16,40.00,50.00,SummerDesignDay
8,17.59724609886134
10,90962959.15503687
321,24941674.566622728
2,1, 7,21, 0,16,50.00,60.00,SummerDesignDay
8,17.55650676726033
10,90723992.14137334
321,24942642.314479267
2,1, 7,21, 0,16, 0.00,60.00,SummerDesignDay
555,23.99994690712087
595,23.999928000550825
635,23.998655743368649
675,23.410401968058378
715,23.997331261402139
2,1, 7,21, 0,17, 0.00,10.00,SummerDesignDay
8,17.50209486331892
10,81749431.16691575
321,23026200.627902226
2,1, 7,21, 0,17,10.00,20.00,SummerDesignDay
8,17.447570789624618
10,81182422.95704076
321,22850169.47901297
2,1, 7,21, 0,17,20.00,30.00,SummerDesignDay
8,17.392929544208135
10,80875558.78215103
321,16516234.817336856
2,1, 7,21, 0,17,30.00,40.00,SummerDesignDay
8,17.33818013976614
10,80604571.21270664
321,17729793.125655824
2,1, 7,21, 0,17,40.00,50.00,SummerDesignDay
8,17.283317298559309
10,80345287.09145278
321,22809709.030234796
2,1, 7,21, 0,17,50.00,60.00,SummerDesignDay
8,17.22833552437677
10,80085954.22674553
321,22828772.18682944
2,1, 7,21, 0,17, 0.00,60.00,SummerDesignDay
555,23.999933575481508
595,23.999946216952425
635,23.99899679017167
675,23.355677146861625
715,23.998163965950139
2,1, 7,21, 0,18, 0.00,10.00,SummerDesignDay
8,17.159453019160176
10,67198035.8761056
321,10262226.015878525
2,1, 7,21, 0,18,10.00,20.00,SummerDesignDay
8,17.090391773337136
10,66484670.58112474
321,20237753.82502196
2,1, 7,21, 0,18,20.00,30.00,SummerDesignDay
8,17.021151077964786
10,66121513.50460536
321,10138442.63966219
2,1, 7,21, 0,18,30.00,40.00,SummerDesignDay
8,16.951729380464653
10,65752009.50624726
321,20249811.356656694
2,1, 7,21, 0,18,40.00,50.00,SummerDesignDay
8,16.882126503829249
10,65392980.27204085
321,10132614.621425096
2,1, 7,21, 0,18,50.00,60.00,SummerDesignDay
8,16.812341807494034
10,65038274.09599355
321,20261427.859026936
2,1, 7,21, 0,18, 0.00,60.00,SummerDesignDay
555,23.999876781290394
595,23.999950249608547
635,23.999051205522233
675,23.424889838410409
715,23.999288259073749
2,1, 7,21, 0,19, 0.00,10.00,SummerDesignDay
8,16.707321072823203
10,64658492.04489891
321,13774124.598393668
2,1, 7,21, 0,19,10.00,20.00,SummerDesignDay
8,16.601881826644556
10,64279111.484269168
321,18959915.739471247
2,1, 7,21, 0,19,20.00,30.00,SummerDesignDay
8,16.496030555252849
10,63754290.23744209
321,21897059.576760334
2,1, 7,21, 0,19,30.00,40.00,SummerDesignDay
8,16.389760181474104
10,63220835.77567768
321,17886980.65641342
2,1, 7,21, 0,19,40.00,50.00,SummerDesignDay
8,16.283067654262039
10,62678178.21975946
321,14981978.841504664
2,1, 7,21, 0,19,50.00,60.00,SummerDesignDay
8,16.17595057957811
10,62128459.07988223
321,21884418.525375997
2,1, 7,21, 0,19, 0.00,60.00,SummerDesignDay
555,23.999812377218857
595,23.999947674750094
635,23.998669235987224
675,23.466880080711325
715,23.999581859105246
2,1, 7,21, 0,20, 0.00,10.00,SummerDesignDay
8,16.097123145563505
10,68685616.38139847
321,24906907.93528624
2,1, 7,21, 0,20,10.00,20.00,SummerDesignDay
8,16.018070242471564
10,68464810.30907047
321,25296304.388522809
2,1, 7,21, 0,20,20.00,30.00,SummerDesignDay
8,15.938779752340516
10,68408067.63377424
321,25296389.891525985
2,1, 7,21, 0,20,30.00,40.00,SummerDesignDay
8,15.85926152575189
10,68604422.85321208
321,25296435.95217516
2,1, 7,21, 0,20,40.00,50.00,SummerDesignDay
8,15.779503718563929
10,67769433.60859077
321,25296482.1043009
2,1, 7,21, 0,20,50.00,60.00,SummerDesignDay
8,15.699515709672767
10,67532750.75375839
321,25093077.460894996
2,1, 7,21, 0,20, 0.00,60.00,SummerDesignDay
555,23.999906199888927
595,23.999890615182268
635,23.99811291985482
675,23.765590441382348
715,23.99927329347602
2,1, 7,21, 0,21, 0.00,10.00,SummerDesignDay
8,15.63389147320404
10,67838140.6409268
321,31152572.56785173
2,1, 7,21, 0,21,10.00,20.00,SummerDesignDay
8,15.56810827419793
10,67839678.5159946
321,31686136.932623123
2,1, 7,21, 0,21,20.00,30.00,SummerDesignDay
8,15.502170882753524
10,67511857.81564474
321,31693844.43314161
2,1, 7,21, 0,21,30.00,40.00,SummerDesignDay
8,15.436068032613852
10,67131419.44853394
321,31701787.71125599
2,1, 7,21, 0,21,40.00,50.00,SummerDesignDay
8,15.369804371206009
10,66769711.732356149
321,31709590.577886765
2,1, 7,21, 0,21,50.00,60.00,SummerDesignDay
8,15.303384603594449
10,66392686.89840085
321,31717253.253466075
2,1, 7,21, 0,21, 0.00,60.00,SummerDesignDay
555,23.99995689081454
595,23.999895351886349
635,23.99770210903316
675,23.83558716173582
715,23.999258529020083
2,1, 7,21, 0,22, 0.00,10.00,SummerDesignDay
8,15.236797685071274
10,62568818.80011765
321,29385280.160130104
2,1, 7,21, 0,22,10.00,20.00,SummerDesignDay
8,15.170047891787942
10,62082264.357427809
321,29687804.024261863
2,1, 7,21, 0,22,20.00,30.00,SummerDesignDay
8,15.103134826860483
10,61707099.7334297
321,30961291.5038204
2,1, 7,21, 0,22,30.00,40.00,SummerDesignDay
8,15.036063385178485
10,61309918.464012268
321,30961192.857578156
2,1, 7,21, 0,22,40.00,50.00,SummerDesignDay
8,14.968821767219835
10,60914604.40506807
321,30960620.05520233
2,1, 7,21, 0,22,50.00,60.00,SummerDesignDay
8,14.90141525878635
10,60511218.71638792
321,30959998.83978127
2,1, 7,21, 0,22, 0.00,60.00,SummerDesignDay
555,23.72389549670774
595,23.99992359990544
635,23.997406080377478
675,23.83658934266938
715,23.99937675418795
2,1, 7,21, 0,23, 0.00,10.00,SummerDesignDay
8,14.848873673278373
10,46155639.80836437
321,28185546.95460231
2,1, 7,21, 0,23,10.00,20.00,SummerDesignDay
8,14.796237168136719
10,45787632.84335945
321,27850303.391868585
2,1, 7,21, 0,23,20.00,30.00,SummerDesignDay
8,14.743494321455645
10,46557520.44428965
321,27850645.37017671
2,1, 7,21, 0,23,30.00,40.00,SummerDesignDay
8,14.690649975253665
10,45410589.54624666
321,27851572.110246064
2,1, 7,21, 0,23,40.00,50.00,SummerDesignDay
8,14.637704281233117
10,45664340.461798
321,27852443.73534556
2,1, 7,21, 0,23,50.00,60.00,SummerDesignDay
8,14.584656914839757
10,45766404.61827564
321,28447323.079346889
2,1, 7,21, 0,23, 0.00,60.00,SummerDesignDay
555,23.289937287320897
595,23.829705548848165
635,23.997825373467227
675,23.848447217215435
715,23.20416940656089
2,1, 7,21, 0,24, 0.00,10.00,SummerDesignDay
8,14.531507212058875
10,36476946.92187238
321,27907246.348945317
2,1, 7,21, 0,24,10.00,20.00,SummerDesignDay
8,14.47825496413355
10,36562459.32704531
321,27886891.013278217
2,1, 7,21, 0,24,20.00,30.00,SummerDesignDay
8,14.4249000133173
10,36527251.59271962
321,27406937.39077057
2,1, 7,21, 0,24,30.00,40.00,SummerDesignDay
8,14.371447531304272
10,36896087.67381574
321,27396074.56015294
2,1, 7,21, 0,24,40.00,50.00,SummerDesignDay
8,14.31788619902223
10,36107103.48155538
321,27531165.83948939
2,1, 7,21, 0,24,50.00,60.00,SummerDesignDay
8,14.264220970176066
10,36336637.47319011
321,27666264.635257819
2,1, 7,21, 0,24, 0.00,60.00,SummerDesignDay
555,22.873761679539475
595,23.186705689360456
635,23.998458356553529
675,23.87029837917753
715,21.522021280352857
3,1, 7,21, 0,SummerDesignDay
556,48.307234660786068,44.68322649763611,21,60,54.765791269238977, 7,30
596,48.211387563505187,44.12240213163685,22,60,54.9028490312137, 7,30
636,49.83535297376266,44.95637315436638, 1,60,58.66727807763695, 6,50
676,62.266378367932308,58.40763095978643,20,30,65.82427203256701,10,49
716,52.77802507298846,46.30616419006909,22,50,62.695515515990908, 6,20
4,1, 7
7,22.2505,16.5,21, 5,60,28.9,21,14,60
1,FORT MCMURRAY AP ANN HTG 99.6% CONDNS DB,  56.65,-111.22,  -7.00, 369.10
2,1, 1,21, 0, 1, 0.00,10.00,WinterDesignDay
8,-36.2
10,29363152.374240195
321,421365232.3270455
2,1, 1,21, 0, 1,10.00,20.00,WinterDesignDay
8,-36.2
10,29363152.374240195
321,419971365.6225414
2,1, 1,21, 0, 1,20.00,30.00,WinterDesignDay
8,-36.2
10,29363152.374240195
321,420481436.25024297
2,1, 1,21, 0, 1,30.00,40.00,WinterDesignDay
8,-36.2
10,29363152.374240195
321,422320992.3063429
2,1, 1,21, 0, 1,40.00,50.00,WinterDesignDay
8,-36.2
10,29363152.374240195
321,424547874.77071276
2,1, 1,21, 0, 1,50.00,60.00,WinterDesignDay
8,-36.2
10,29363152.374240195
321,424681536.32572516
2,1, 1,21, 0, 1, 0.00,60.00,WinterDesignDay
555,19.376263052497174
595,20.037988456532074
635,22.126615068875937
675,23.344781682688497
715,17.999998398229925
2,1, 1,21, 0, 2, 0.00,10.00,WinterDesignDay
8,-36.2
10,18365657.09858048
321,432432623.827506
2,1, 1,21, 0, 2,10.00,20.00,WinterDesignDay
8,-36.2
10,18365657.09858048
321,423085509.1532083
2,1, 1,21, 0, 2,20.00,30.00,WinterDesignDay
8,-36.2
10,18365657.09858048
321,433396824.016515
2,1, 1,21, 0, 2,30.00,40.00,WinterDesignDay
8,-36.2
10,18365657.09858048
321,423371978.7579323
2,1, 1,21, 0, 2,40.00,50.00,WinterDesignDay
8,-36.2
10,18365657.09858048
321,433846548.27499189
2,1, 1,21, 0, 2,50.00,60.00,WinterDesignDay
8,-36.2
10,18365657.09858048
321,423732805.1091966
2,1, 1,21, 0, 2, 0.00,60.00,WinterDesignDay
555,19.012343021207426
595,19.10269259499746
635,21.999546045630905
675,22.650048069604496
715,17.99998280762474
2,1, 1,21, 0, 3, 0.00,10.00,WinterDesignDay
8,-36.2
10,7966879.330764714
321,410521082.79313018
2,1, 1,21, 0, 3,10.00,20.00,WinterDesignDay
8,-36.2
10,7966879.330764714
321,410521375.4415561
2,1, 1,21, 0, 3,20.00,30.00,WinterDesignDay
8,-36.2
10,7966879.330764714
321,410736402.4287894
2,1, 1,21, 0, 3,30.00,40.00,WinterDesignDay
8,-36.2
10,7966879.330764714
321,411040348.4945418
2,1, 1,21, 0, 3,40.00,50.00,WinterDesignDay
8,-36.2
10,7966879.330764714
321,410652347.7605511
2,1, 1,21, 0, 3,50.00,60.00,WinterDesignDay
8,-36.2
10,7966879.330764714
321,410106083.47503188
2,1, 1,21, 0, 3, 0.00,60.00,WinterDesignDay
555,18.766099073809543
595,18.69823175315428
635,19.39722595619028
675,22.20591291381612
715,17.99999339628516
2,1, 1,21, 0, 4, 0.00,10.00,WinterDesignDay
8,-36.2
10,7368161.822920777
321,417508587.62474188
2,1, 1,21, 0, 4,10.00,20.00,WinterDesignDay
8,-36.2
10,7368161.822920777
321,417356457.18514016
2,1, 1,21, 0, 4,20.00,30.00,WinterDesignDay
8,-36.2
10,7368161.822920777
321,409810409.1065243
2,1, 1,21, 0, 4,30.00,40.00,WinterDesignDay
8,-36.2
10,7368161.822920777
321,418425855.8752396
2,1, 1,21, 0, 4,40.00,50.00,WinterDesignDay
8,-36.2
10,7368161.822920777
321,410210548.1526361
2,1, 1,21, 0, 4,50.00,60.00,WinterDesignDay
8,-36.2
10,7368161.822920777
321,418745478.3868232
2,1, 1,21, 0, 4, 0.00,60.00,WinterDesignDay
555,18.45911872984445
595,18.323467911600916
635,17.99993336164062
675,21.701152232897824
715,17.999986311171765
2,1, 1,21, 0, 5, 0.00,10.00,WinterDesignDay
8,-36.2
10,7368161.822920777
321,410490138.90847018
2,1, 1,21, 0, 5,10.00,20.00,WinterDesignDay
8,-36.2
10,7368161.822920777
321,418971280.7269089
2,1, 1,21, 0, 5,20.00,30.00,WinterDesignDay
8,-36.2
10,7368161.822920777
321,410694563.2362555
2,1, 1,21, 0, 5,30.00,40.00,WinterDesignDay
8,-36.2
10,7368161.822920777
321,419135778.20016136
2,1, 1,21, 0, 5,40.00,50.00,WinterDesignDay
8,-36.2
10,7368161.822920777
321,410848426.6982732
2,1, 1,21, 0, 5,50.00,60.00,WinterDesignDay
8,-36.2
10,7368161.822920777
321,419252291.0571208
2,1, 1,21, 0, 5, 0.00,60.00,WinterDesignDay
555,18.22591038864452
595,18.077737866709666
635,17.999965499315754
675,21.349486663623187
715,17.99998702346313
2,1, 1,21, 0, 6, 0.00,10.00,WinterDesignDay
8,-36.2
10,7368161.822920777
321,420104791.1570153
2,1, 1,21, 0, 6,10.00,20.00,WinterDesignDay
8,-36.2
10,7368161.822920777
321,420169009.8423827
2,1, 1,21, 0, 6,20.00,30.00,WinterDesignDay
8,-36.2
10,7368161.822920777
321,418154993.5227849
2,1, 1,21, 0, 6,30.00,40.00,WinterDesignDay
8,-36.2
10,7368161.822920777
321,413548426.31086686
2,1, 1,21, 0, 6,40.00,50.00,WinterDesignDay
8,-36.2
10,7368161.822920777
321,420326563.4695551
2,1, 1,21, 0, 6,50.00,60.00,WinterDesignDay
8,-36.2
10,7368161.822920777
321,420369371.94430997
2,1, 1,21, 0, 6, 0.00,60.00,WinterDesignDay
555,18.08303959821045
595,18.00002132209339
635,17.999978641500169
675,21.24848425918371
715,17.99998748150401
2,1, 1,21, 0, 7, 0.00,10.00,WinterDesignDay
8,-36.2
10,7966879.330764714
321,423455415.39193698
2,1, 1,21, 0, 7,10.00,20.00,WinterDesignDay
8,-36.2
10,7966879.330764714
321,429265315.62049749
2,1, 1,21, 0, 7,20.00,30.00,WinterDesignDay
8,-36.2
10,7966879.330764714
321,421518643.78802856
2,1, 1,21, 0, 7,30.00,40.00,WinterDesignDay
8,-36.2
10,7966879.330764714
321,431010577.0753013
2,1, 1,21, 0, 7,40.00,50.00,WinterDesignDay
8,-36.2
10,7966879.330764714
321,422290434.0220885
2,1, 1,21, 0, 7,50.00,60.00,WinterDesignDay
8,-36.2
10,7966879.330764714
321,421716553.43007346
2,1, 1,21, 0, 7, 0.00,60.00,WinterDesignDay
555,18.008262718131986
595,17.999997765195688
635,17.99998227494272
675,21.42758783644493
715,17.999987676722609
2,1, 1,21, 0, 8, 0.00,10.00,WinterDesignDay
8,-36.2
10,9164314.346452589
321,514159268.33806386
2,1, 1,21, 0, 8,10.00,20.00,WinterDesignDay
8,-36.2
10,9164314.346452589
321,490476409.8345296
2,1, 1,21, 0, 8,20.00,30.00,WinterDesignDay
8,-36.2
10,9164314.346452589
321,472292243.6008878
2,1, 1,21, 0, 8,30.00,40.00,WinterDesignDay
8,-36.2
10,9164314.346452589
321,444750696.5222996
2,1, 1,21, 0, 8,40.00,50.00,WinterDesignDay
8,-36.2
10,9164314.346452589
321,452932732.5364072
2,1, 1,21, 0, 8,50.00,60.00,WinterDesignDay
8,-36.2
10,9164314.346452589
321,453482851.5942469
2,1, 1,21, 0, 8, 0.00,60.00,WinterDesignDay
555,19.697469337005324
595,19.76801223214957
635,17.99998845508395
675,21.767016786413476
715,19.974395746287617
2,1, 1,21, 0, 9, 0.00,10.00,WinterDesignDay
8,-36.2
10,20689626.372448397
321,559191029.3056665
2,1, 1,21, 0, 9,10.00,20.00,WinterDesignDay
8,-36.2
10,20689626.372448397
321,526358399.35831716
2,1, 1,21, 0, 9,20.00,30.00,WinterDesignDay
8,-36.2
10,20689626.372448397
321,507332158.16111758
2,1, 1,21, 0, 9,30.00,40.00,WinterDesignDay
8,-36.2
10,20689626.372448397
321,485955361.4161111
2,1, 1,21, 0, 9,40.00,50.00,WinterDesignDay
8,-36.2
10,20689626.372448397
321,478666997.3760851
2,1, 1,21, 0, 9,50.00,60.00,WinterDesignDay
8,-36.2
10,20689626.372448397
321,480682061.9586523
2,1, 1,21, 0, 9, 0.00,60.00,WinterDesignDay
555,21.665872673242775
595,21.707560356710844
635,19.955399656263759
675,22.215730322753374
715,21.960083775963644
2,1, 1,21, 0,10, 0.00,10.00,WinterDesignDay
8,-36.2
10,56776836.48057371
321,477389452.3029482
2,1, 1,21, 0,10,10.00,20.00,WinterDesignDay
8,-36.2
10,56776836.48057371
321,451758864.1666026
2,1, 1,21, 0,10,20.00,30.00,WinterDesignDay
8,-36.2
10,56776836.48057371
321,446424484.9049937
2,1, 1,21, 0,10,30.00,40.00,WinterDesignDay
8,-36.2
10,56776836.48057371
321,446883839.2706653
2,1, 1,21, 0,10,40.00,50.00,WinterDesignDay
8,-36.2
10,56776836.48057371
321,444263813.55533626
2,1, 1,21, 0,10,50.00,60.00,WinterDesignDay
8,-36.2
10,56776836.48057371
321,443473808.7700505
2,1, 1,21, 0,10, 0.00,60.00,WinterDesignDay
555,21.99999704179638
595,21.999992909679479
635,21.962074052832834
675,22.556870935650939
715,22.00000025775505
2,1, 1,21, 0,11, 0.00,10.00,WinterDesignDay
8,-36.2
10,61976225.36448159
321,438134726.61888459
2,1, 1,21, 0,11,10.00,20.00,WinterDesignDay
8,-36.2
10,61976225.36448159
321,436207888.9953163
2,1, 1,21, 0,11,20.00,30.00,WinterDesignDay
8,-36.2
10,61976225.36448159
321,435751711.9361522
2,1, 1,21, 0,11,30.00,40.00,WinterDesignDay
8,-36.2
10,61976225.36448159
321,435298421.6119045
2,1, 1,21, 0,11,40.00,50.00,WinterDesignDay
8,-36.2
10,61976225.36448159