Program Version,EnergyPlus, Version 8.9.0-eba93e8e1b, YMD=2019.03.11 19:38
1,5,Environment Title[],Latitude[deg],Longitude[deg],Time Zone[],Elevation[m]
2,8,Day of Simulation[],Month[],Day of Month[],DST Indicator[1=yes 0=no],Hour[],StartMinute[],EndMinute[],DayType
3,5,Cumulative Day of Simulation[],Month[],Day of Month[],DST Indicator[1=yes 0=no],DayType  ! When Daily Report Variables Requested
4,2,Cumulative Days of Simulation[],Month[]  ! When Monthly Report Variables Requested
5,1,Cumulative Days of Simulation[] ! When Run Period Report Variables Requested
6,1,Calendar Year of Simulation[] ! When Annual Report Variables Requested
7,9,Environment,Site Outdoor Air Drybulb Temperature [C] !Monthly [Value,Min,Day,Hour,Minute,Max,Day,Hour,Minute]
8,1,Environment,Site Outdoor Air Wetbulb Temperature [C] !TimeStep
1729,1,ALL_ST=PENITENTIARY - DINING_FL=STORY 8_SCH=B,Zone Air Temperature [C] !Hourly
1730,7,ALL_ST=PENITENTIARY - DINING_FL=STORY 8_SCH=B,Zone Air Relative Humidity [%] !Daily [Value,Min,Hour,Minute,Max,Hour,Minute]
1769,1,ALL_ST=POST OFFICE SORTING_FL=STORY 8_SCH=A,Zone Air Temperature [C] !Hourly
1770,7,ALL_ST=POST OFFICE SORTING_FL=STORY 8_SCH=A,Zone Air Relative Humidity [%] !Daily [Value,Min,Hour,Minute,Max,Hour,Minute]
1809,1,ALL_ST=RELIGIOUS - AUDIENCE_FL=STORY 8_SCH=I,Zone Air Temperature [C] !Hourly
1810,7,ALL_ST=RELIGIOUS - AUDIENCE_FL=STORY 8_SCH=I,Zone Air Relative Humidity [%] !Daily [Value,Min,Hour,Minute,Max,Hour,Minute]
1849,1,ALL_ST=RELIGIOUS - FELLOWSHIP HALL_FL=STORY 7_SCH=C,Zone Air Temperature [C] !Hourly
1850,7,ALL_ST=RELIGIOUS - FELLOWSHIP HALL_FL=STORY 7_SCH=C,Zone Air Relative Humidity [%] !Daily [Value,Min,Hour,Minute,Max,Hour,Minute]
1889,1,ALL_ST=RELIGIOUS - PULPIT/CHOIR_FL=STORY 7_SCH=I,Zone Air Temperature [C] !Hourly
1890,7,ALL_ST=RELIGIOUS - PULPIT/CHOIR_FL=STORY 7_SCH=I,Zone Air Relative Humidity [%] !Daily [Value,Min,Hour,Minute,Max,Hour,Minute]
1929,1,ALL_ST=RETAIL - DRESSING/FITTING_FL=STORY 7_SCH=C,Zone Air Temperature [C] !Hourly
1930,7,ALL_ST=RETAIL - DRESSING/FITTING_FL=STORY 7_SCH=C,Zone Air Relative Humidity [%] !Daily [Value,Min,Hour,Minute,Max,Hour,Minute]
1969,1,ALL_ST=RETAIL - MALL CONCOURSE_FL=STORY 6_SCH=C,Zone Air Temperature [C] !Hourly
1970,7,ALL_ST=RETAIL - MALL CONCOURSE_FL=STORY 6_SCH=C,Zone Air Relative Humidity [%] !Daily [Value,Min,Hour,Minute,Max,Hour,Minute]
2009,1,ALL_ST=RETAIL - SALES_FL=STORY 7_SCH=C,Zone Air Temperature [C] !Hourly
2010,7,ALL_ST=RETAIL - SALES_FL=STORY 7_SCH=C,Zone Air Relative Humidity [%] !Daily [Value,Min,Hour,Minute,Max,Hour,Minute]
2049,1,ALL_ST=SALES AREA_FL=STORY 6_SCH=C,Zone Air Temperature [C] !Hourly
2050,7,ALL_ST=SALES AREA_FL=STORY 6_SCH=C,Zone Air Relative Humidity [%] !Daily [Value,Min,Hour,Minute,Max,Hour,Minute]
2089,1,ALL_ST=SPORTS ARENA - AUDIENCE_FL=STORY 8_SCH=B,Zone Air Temperature [C] !Hourly
2090,7,ALL_ST=SPORTS ARENA - AUDIENCE_FL=STORY 8_SCH=B,Zone Air Relative Humidity [%] !Daily [Value,Min,Hour,Minute,Max,Hour,Minute]
2129,1,ALL_ST=SPORTS ARENA - COURT C1_FL=STORY 6_SCH=B,Zone Air Temperature [C] !Hourly
2130,7,ALL_ST=SPORTS ARENA - COURT C1_FL=STORY 6_SCH=B,Zone Air Relative Humidity [%] !Daily [Value,Min,Hour,Minute,Max,Hour,Minute]
2169,1,ALL_ST=SPORTS ARENA - COURT C2_FL=STORY 5_SCH=B,Zone Air Temperature [C] !Hourly
2170,7,ALL_ST=SPORTS ARENA - COURT C2_FL=STORY 5_SCH=B,Zone Air Relative Humidity [%] !Daily [Value,Min,Hour,Minute,Max,Hour,Minute]
2209,1,ALL_ST=SPORTS ARENA - COURT C3_FL=STORY 5_SCH=B,Zone Air Temperature [C] !Hourly
2210,7,ALL_ST=SPORTS ARENA - COURT C3_FL=STORY 5_SCH=B,Zone Air Relative Humidity [%] !Daily [Value,Min,Hour,Minute,Max,Hour,Minute]
2249,1,ALL_ST=SPORTS ARENA - COURT C4_FL=STORY 2_SCH=B,Zone Air Temperature [C] !Hourly
2250,7,ALL_ST=SPORTS ARENA - COURT C4_FL=STORY 2_SCH=B,Zone Air Relative Humidity [%] !Daily [Value,Min,Hour,Minute,Max,Hour,Minute]
2289,1,ALL_ST=SPORTS ARENA - RING_FL=STORY 6_SCH=B,Zone Air Temperature [C] !Hourly
2290,7,ALL_ST=SPORTS ARENA - RING_FL=STORY 6_SCH=B,Zone Air Relative Humidity [%] !Daily [Value,Min,Hour,Minute,Max,Hour,Minute]
2329,1,ALL_ST=STORAGE AREA - OCCSENS_FL=STORY 3_SCH=E,Zone Air Temperature [C] !Hourly
2330,7,ALL_ST=STORAGE AREA - OCCSENS_FL=STORY 3_SCH=E,Zone Air Relative Humidity [%] !Daily [Value,Min,Hour,Minute,Max,Hour,Minute]
2369,1,ALL_ST=STORAGE AREA - REFRIGERATED - OCCSENS_FL=STORY 1_SCH=E,Zone Air Temperature [C] !Hourly
2370,7,ALL_ST=STORAGE AREA - REFRIGERATED - OCCSENS_FL=STORY 1_SCH=E,Zone Air Relative Humidity [%] !Daily [Value,Min,Hour,Minute,Max,Hour,Minute]
2409,1,ALL_ST=STORAGE AREA - REFRIGERATED_FL=STORY 3_SCH=E,Zone Air Temperature [C] !Hourly
2410,7,ALL_ST=STORAGE AREA - REFRIGERATED_FL=STORY 3_SCH=E,Zone Air Relative Humidity [%] !Daily [Value,Min,Hour,Minute,Max,Hour,Minute]
2449,1,ALL_ST=STORAGE AREA_FL=STORY 2_SCH=E,Zone Air Temperature [C] !Hourly
2450,7,ALL_ST=STORAGE AREA_FL=STORY 2_SCH=E,Zone Air Relative Humidity [%] !Daily [Value,Min,Hour,Minute,Max,Hour,Minute]
2489,1,ALL_ST=TRANSP. BAGGAGE_FL=STORY 4_SCH=H,Zone Air Temperature [C] !Hourly
2490,7,ALL_ST=TRANSP. BAGGAGE_FL=STORY 4_SCH=H,Zone Air Relative Humidity [%] !Daily [Value,Min,Hour,Minute,Max,Hour,Minute]
2529,1,ALL_ST=TRANSP. CONCOURSE_FL=STORY 6_SCH=H,Zone Air Temperature [C] !Hourly
2530,7,ALL_ST=TRANSP. CONCOURSE_FL=STORY 6_SCH=H,Zone Air Relative Humidity [%] !Daily [Value,Min,Hour,Minute,Max,Hour,Minute]
2569,1,ALL_ST=TRANSP. COUNTER_FL=STORY 5_SCH=H,Zone Air Temperature [C] !Hourly
2570,7,ALL_ST=TRANSP. COUNTER_FL=STORY 5_SCH=H,Zone Air Relative Humidity [%] !Daily [Value,Min,Hour,Minute,Max,Hour,Minute]
2609,1,ALL_ST=TRANSP. SEATING_FL=STORY 3_SCH=H,Zone Air Temperature [C] !Hourly
2610,7,ALL_ST=TRANSP. SEATING_FL=STORY 3_SCH=H,Zone Air Relative Humidity [%] !Daily [Value,Min,Hour,Minute,Max,Hour,Minute]
2649,1,ALL_ST=WAREHOUSE - FINE - REFRIGERATED_FL=STORY 4_SCH=A,Zone Air Temperature [C] !Hourly
2650,7,ALL_ST=WAREHOUSE - FINE - REFRIGERATED_FL=STORY 4_SCH=A,Zone Air Relative Humidity [%] !Daily [Value,Min,Hour,Minute,Max,Hour,Minute]
2689,1,ALL_ST=WAREHOUSE - FINE_FL=STORY 7_SCH=A,Zone Air Temperature [C] !Hourly
2690,7,ALL_ST=WAREHOUSE - FINE_FL=STORY 7_SCH=A,Zone Air Relative Humidity [%] !Daily [Value,Min,Hour,Minute,Max,Hour,Minute]
2729,1,ALL_ST=WAREHOUSE - MED/BLK - REFRIGERATED_FL=STORY 1_SCH=A,Zone Air Temperature [C] !Hourly
2730,7,ALL_ST=WAREHOUSE - MED/BLK - REFRIGERATED_FL=STORY 1_SCH=A,Zone Air Relative Humidity [%] !Daily [Value,Min,Hour,Minute,Max,Hour,Minute]
2769,1,ALL_ST=WAREHOUSE - MED/BLK2 - REFRIGERATED_FL=STORY 5_SCH=A,Zone Air Temperature [C] !Hourly
2770,7,ALL_ST=WAREHOUSE - MED/BLK2 - REFRIGERATED_FL=STORY 5_SCH=A,Zone Air Relative Humidity [%] !Daily [Value,Min,Hour,Minute,Max,Hour,Minute]
2809,1,ALL_ST=WAREHOUSE - MED/BLK2_FL=STORY 4_SCH=A,Zone Air Temperature [C] !Hourly
2810,7,ALL_ST=WAREHOUSE - MED/BLK2_FL=STORY 4_SCH=A,Zone Air Relative Humidity [%] !Daily [Value,Min,Hour,Minute,Max,Hour,Minute]
2849,1,ALL_ST=WAREHOUSE - MED/BLK_FL=STORY 2_SCH=A,Zone Air Temperature [C] !Hourly
2850,7,ALL_ST=WAREHOUSE - MED/BLK_FL=STORY 2_SCH=A,Zone Air Relative Humidity [%] !Daily [Value,Min,Hour,Minute,Max,Hour,Minute]
2889,1,WET_ST=WASHROOM-SCH-A_FL=STORY 1_SCHA,Zone Air Temperature [C] !Hourly
2890,7,WET_ST=WASHROOM-SCH-A_FL=STORY 1_SCHA,Zone Air Relative Humidity [%] !Daily [Value,Min,Hour,Minute,Max,Hour,Minute]
2929,1,WET_ST=WASHROOM-SCH-B_FL=STORY 5_SCHA,Zone Air Temperature [C] !Hourly
2930,7,WET_ST=WASHROOM-SCH-B_FL=STORY 5_SCHA,Zone Air Relative Humidity [%] !Daily [Value,Min,Hour,Minute,Max,Hour,Minute]
2969,1,WILD_ST=STAIRWAY-SCH-A_FL=STORY 4_SCH=A,Zone Air Temperature [C] !Hourly
2970,7,WILD_ST=STAIRWAY-SCH-A_FL=STORY 4_SCH=A,Zone Air Relative Humidity [%] !Daily [Value,Min,Hour,Minute,Max,Hour,Minute]
3009,1,WILD_ST=STAIRWAY-SCH-B_FL=STORY 2_SCH=A,Zone Air Temperature [C] !Hourly
3010,7,WILD_ST=STAIRWAY-SCH-B_FL=STORY 2_SCH=A,Zone Air Relative Humidity [%] !Daily [Value,Min,Hour,Minute,Max,Hour,Minute]
3049,1,WILD_ST=STAIRWAY-SCH-C_FL=STORY 1_SCH=A,Zone Air Temperature [C] !Hourly
3050,7,WILD_ST=STAIRWAY-SCH-C_FL=STORY 1_SCH=A,Zone Air Relative Humidity [%] !Daily [Value,Min,Hour,Minute,Max,Hour,Minute]
3089,1,WILD_ST=STAIRWAY-SCH-D_FL=STORY 8_SCH=A,Zone Air Temperature [C] !Hourly
3090,7,WILD_ST=STAIRWAY-SCH-D_FL=STORY 8_SCH=A,Zone Air Relative Humidity [%] !Daily [Value,Min,Hour,Minute,Max,Hour,Minute]
3129,1,WILD_ST=STAIRWAY-SCH-E_FL=STORY 2_SCH=A,Zone Air Temperature [C] !Hourly
3130,7,WILD_ST=STAIRWAY-SCH-E_FL=STORY 2_SCH=A,Zone Air Relative Humidity [%] !Daily [Value,Min,Hour,Minute,Max,Hour,Minute]
3169,1,WILD_ST=STAIRWAY-SCH-F_FL=STORY 3_SCH=A,Zone Air Temperature [C] !Hourly
3170,7,WILD_ST=STAIRWAY-SCH-F_FL=STORY 3_SCH=A,Zone Air Relative Humidity [%] !Daily [Value,Min,Hour,Minute,Max,Hour,Minute]
3209,1,WILD_ST=STAIRWAY-SCH-G_FL=STORY 1_SCH=A,Zone Air Temperature [C] !Hourly
3210,7,WILD_ST=STAIRWAY-SCH-G_FL=STORY 1_SCH=A,Zone Air Relative Humidity [%] !Daily [Value,Min,Hour,Minute,Max,Hour,Minute]
3249,1,WILD_ST=STAIRWAY-SCH-H_FL=STORY 4_SCH=A,Zone Air Temperature [C] !Hourly
3250,7,WILD_ST=STAIRWAY-SCH-H_FL=STORY 4_SCH=A,Zone Air Relative Humidity [%] !Daily [Value,Min,Hour,Minute,Max,Hour,Minute]
3289,1,WILD_ST=STAIRWAY-SCH-I_FL=STORY 3_SCH=A,Zone Air Temperature [C] !Hourly
3290,7,WILD_ST=STAIRWAY-SCH-I_FL=STORY 3_SCH=A,Zone Air Relative Humidity [%] !Daily [Value,Min,Hour,Minute,Max,Hour,Minute]
10,1,Electricity:Facility [J] !TimeStep
1495,1,Gas:Facility [J] !TimeStep
End of Data Dictionary
1,FORT MCMURRAY AP ANN CLG .4% CONDNS DB=>MWB,  56.65,-111.22,  -7.00, 369.10
2,1, 7,21, 0, 1, 0.00,10.00,SummerDesignDay
8,14.218136923962174
10,348135674.01492998
1495,123335278.31482303
2,1, 7,21, 0, 1,10.00,20.00,SummerDesignDay
8,14.171982153293495
10,346761474.9104045
1495,122005616.66505543
2,1, 7,21, 0, 1,20.00,30.00,SummerDesignDay
8,14.125744780286427
10,346661342.36561319
1495,143546290.21552787
2,1, 7,21, 0, 1,30.00,40.00,SummerDesignDay
8,14.079436086331978
10,346602454.80454429
1495,161533259.86737297
2,1, 7,21, 0, 1,40.00,50.00,SummerDesignDay
8,14.033050387896898
10,346484553.1921641
1495,122050321.29479137
2,1, 7,21, 0, 1,50.00,60.00,SummerDesignDay
8,13.986581233564835
10,346417979.770106
1495,122393593.92360153
2,1, 7,21, 0, 1, 0.00,60.00,SummerDesignDay
1729,22.509029922885579
1769,21.204684395609808
1809,22.912021461245783
1849,22.13406912339393
1889,23.863500287342107
1929,23.9202004698698
1969,23.924211766105278
2009,24.259955034659617
2049,23.952294348913744
2089,22.00081096268833
2129,23.998057471563798
2169,23.99812039703326
2209,23.998150771715719
2249,23.99813147004113
2289,23.998024832654285
2329,25.456199552344846
2369,24.749963878009017
2409,24.778009437120845
2449,24.751048107099924
2489,23.999238976065774
2529,22.421372456807889
2569,23.998354235865404
2609,22.91713441706845
2649,25.514955507304149
2689,25.80554045016314
2729,24.163306944590166
2769,27.128445015484876
2809,26.760774151147616
2849,25.137571383093844
2889,24.825411328488916
2929,25.830141116607707
2969,25.042455608223834
3009,25.05359991309548
3049,24.74050815637656
3089,24.132003108181768
3129,24.735327370688194
3169,25.076876488685444
3209,24.531314486461669
3249,25.08830152749914
3289,25.39378908865389
2,1, 7,21, 0, 2, 0.00,10.00,SummerDesignDay
8,13.95555882260429
10,256140520.61750189
1495,126564776.79865949
2,1, 7,21, 0, 2,10.00,20.00,SummerDesignDay
8,13.924507755336454
10,256122507.75585569
1495,130212375.19388542
2,1, 7,21, 0, 2,20.00,30.00,SummerDesignDay
8,13.893416042989206
10,256112499.54080457
1495,131794577.17730657
2,1, 7,21, 0, 2,30.00,40.00,SummerDesignDay
8,13.862289589689029
10,256109474.58206166
1495,138176022.68939118
2,1, 7,21, 0, 2,40.00,50.00,SummerDesignDay
8,13.831134407608739
10,256089645.46182157
1495,144548916.03590564
2,1, 7,21, 0, 2,50.00,60.00,SummerDesignDay
8,13.799938415548118
10,256078500.2194209
1495,145730866.49479655
2,1, 7,21, 0, 2, 0.00,60.00,SummerDesignDay
1729,22.00762791878847
1769,20.96138440830476
1809,21.311970045691756
1849,22.032755662053508
1889,23.112951714272687
1929,23.76498584698956
1969,23.851122652117068
2009,24.105377535826109
2049,23.850063780888389
2089,22.000884423384833
2129,25.365735396571308
2169,24.65621931621274
2209,24.590545134033467
2249,24.470436955451097
2289,25.063884168220768
2329,25.330935013786048
2369,24.657419892210219
2409,24.626219482798779
2449,24.61189986370755
2489,23.99928430161583
2529,22.403835086760258
2569,23.9983098872769
2609,22.912023408034327
2649,25.317577574329506
2689,25.617751122249957
2729,23.969830588870818
2769,26.890799102947896
2809,26.62342716186667
2849,24.99961281139402
2889,24.717328815324536
2929,25.698972519881918
2969,24.95810078262218
3009,24.90629636589026
3049,24.642801539080997
3089,23.808640886885134
3129,24.650479272713964
3169,24.9356459718062
3209,24.43684601108619
3249,24.94192465872179
3289,25.24665250480075
2,1, 7,21, 0, 3, 0.00,10.00,SummerDesignDay
8,13.776521671948676
10,191194484.88168074
1495,30034735.320763325
2,1, 7,21, 0, 3,10.00,20.00,SummerDesignDay
8,13.753085235778466
10,191171312.04138629
1495,51063505.305888678
2,1, 7,21, 0, 3,20.00,30.00,SummerDesignDay
8,13.729636002354969
10,191154519.4718967
1495,51169631.937671039
2,1, 7,21, 0, 3,30.00,40.00,SummerDesignDay
8,13.706147375533054
10,191161532.75072203
1495,51042617.72369068
2,1, 7,21, 0, 3,40.00,50.00,SummerDesignDay
8,13.682651961920304
10,191131657.8299892
1495,51059367.81485963
2,1, 7,21, 0, 3,50.00,60.00,SummerDesignDay
8,13.659136670643687
10,191115744.09607996
1495,51075217.11818037
2,1, 7,21, 0, 3, 0.00,60.00,SummerDesignDay
1729,20.550978817077675
1769,20.70912422609578
1809,20.364787681616254
1849,21.882765909649039
1889,22.65697618653961
1929,23.577726953400643
1969,23.74885534403039
2009,23.928537385966938
2049,23.733413815547029
2089,19.952988294590069
2129,24.699697134803747
2169,23.98586200307895
2209,24.070986202468629
2249,24.03480037950274
2289,24.38270455124862
2329,25.20895059181953
2369,24.569139560892198
2409,24.488450788383095
2449,24.483790928403154
2489,23.999298645704856
2529,22.375997074555455
2569,23.99844862289818
2609,22.904642965321345
2649,25.13935236111664
2689,25.423099998183607
2729,23.794564998340446
2769,26.67029413441324
2809,26.48928844811282
2849,24.866765172326408
2889,24.62449075482604
2929,25.575549676505209
2969,24.88135109323066
3009,24.766827527096145
3049,24.549239649959686
3089,23.50613863306562
3129,24.570978445744787
3169,24.80334688956921
3209,24.353041597694923
3249,24.80373730588995
3289,25.10785425070993
2,1, 7,21, 0, 4, 0.00,10.00,SummerDesignDay
8,13.63560137410855
10,191093246.4349624
1495,51088952.50844055
2,1, 7,21, 0, 4,10.00,20.00,SummerDesignDay
8,13.612040802606578
10,191071839.85772468
1495,12000.0
2,1, 7,21, 0, 4,20.00,30.00,SummerDesignDay
8,13.58846620506876
10,191052732.0693993
1495,51021874.11179546
2,1, 7,21, 0, 4,30.00,40.00,SummerDesignDay
8,13.56487178447336
10,191032970.15957693
1495,51030119.05243298
2,1, 7,21, 0, 4,40.00,50.00,SummerDesignDay
8,13.541257354069103
10,191012027.34034828
1495,51048473.45771075
2,1, 7,21, 0, 4,50.00,60.00,SummerDesignDay
8,13.517617463812285
10,190991203.50996519
1495,51065933.618435908
2,1, 7,21, 0, 4, 0.00,60.00,SummerDesignDay
1729,19.77965228057595
1769,20.482933578996275
1809,19.944430001056369
1849,21.71707440576613
1889,22.416575372778728
1929,23.369402126118044
1969,23.61548470402606
2009,23.737291654840346
2049,23.601426306209239
2089,18.937596004381683
2129,24.186367704855589
2169,23.549878612387677
2209,23.68238620535924
2249,23.69408155204691
2289,23.891288680911328
2329,25.089851567849924
2369,24.486687910121537
2409,24.36445338178984
2449,24.36821071569655
2489,23.998970207637855
2529,22.333209078282576
2569,23.997772980754094
2609,22.8961899614806
2649,24.982027032236574
2689,25.219372721536734
2729,23.638537080456378
2769,26.46332264031059
2809,26.363769670587219
2849,24.740899949660503
2889,24.535460739783447
2929,25.44743185756479
2969,24.81360982048731
3009,24.63854498025135
3049,24.461770198657378
3089,23.239501541323848
3129,24.49620425742498
3169,24.684329370580199
3209,24.277947908374008
3249,24.673268960860267
3289,24.981667057667797
2,1, 7,21, 0, 5, 0.00,10.00,SummerDesignDay
8,13.50185415824011
10,190972674.42045713
1495,51081237.022885639
2,1, 7,21, 0, 5,10.00,20.00,SummerDesignDay
8,13.486076034032447
10,190961695.13892216
1495,19491353.487755114
2,1, 7,21, 0, 5,20.00,30.00,SummerDesignDay
8,13.470289340350983
10,190741945.36836166
1495,31561753.20841894
2,1, 7,21, 0, 5,30.00,40.00,SummerDesignDay
8,13.454493322631063
10,190401635.12080474
1495,51020348.335450228
2,1, 7,21, 0, 5,40.00,50.00,SummerDesignDay
8,13.438688835118548
10,190058192.78256009
1495,51037470.006886798
2,1, 7,21, 0, 5,50.00,60.00,SummerDesignDay
8,13.422888173889437
10,189715509.8648017
1495,51055847.246246967
2,1, 7,21, 0, 5, 0.00,60.00,SummerDesignDay
1729,19.62562077966774
1769,20.48969467931988
1809,19.73524938546153
1849,21.555734198871716
1889,22.198451596142236
1929,23.268540979263567
1969,23.484586810921774
2009,23.550244581347458
2049,23.583371365235235
2089,18.681138624635286
2129,23.98436515065572
2169,23.406202060955363
2209,23.655750864919573
2249,23.66575463636683
2289,23.799360123544873
2329,25.04110200841124
2369,24.414514099259994
2409,24.35217038197825
2449,24.273526589791247
2489,23.998966701531687
2529,22.295474482098695
2569,23.997785823678098
2609,22.887258999424117
2649,24.89982595608079
2689,25.077845315999018
2729,23.500630773077686
2769,26.266773882237783
2809,26.251837454697207
2849,24.730246149036053
2889,24.451668594141855
2929,25.38278861450773
2969,24.757275272141685
3009,24.532211050119789
3049,24.3860687886244
3089,23.064853860583736
3129,24.434505970301687
3169,24.58598242581833
3209,24.216444802748087
3249,24.64926462190341
3289,24.875058929603346
2,1, 7,21, 0, 6, 0.00,10.00,SummerDesignDay
8,13.438688835118548
10,189953594.073223
1495,51072504.737966459
2,1, 7,21, 0, 6,10.00,20.00,SummerDesignDay
8,13.454493322631063
10,190254740.2837717
1495,51086730.40403501
2,1, 7,21, 0, 6,20.00,30.00,SummerDesignDay
8,13.470289340350983
10,190556624.44815517
1495,12000.0
2,1, 7,21, 0, 6,30.00,40.00,SummerDesignDay
8,13.486076034032447
10,190862546.3988729
1495,51023521.22813372
2,1, 7,21, 0, 6,40.00,50.00,SummerDesignDay
8,13.50185415824011
10,190889242.74727649
1495,51026905.64902604
2,1, 7,21, 0, 6,50.00,60.00,SummerDesignDay
8,13.517617463812285
10,190884155.3669567
1495,51045177.99230185
2,1, 7,21, 0, 6, 0.00,60.00,SummerDesignDay
1729,20.270844048440183
1769,20.876068716285997
1809,19.784140318446075
1849,21.40875967612067
1889,22.012232953453279
1929,23.5811051294355
1969,23.38000640369437
2009,23.390963152000965
2049,23.966594123225226
2089,18.728206687130613
2129,23.826347507988513
2169,23.309126160243335
2209,24.04087701344713
2249,23.72572761391909
2289,23.79823500101924
2329,25.10177398225066
2369,24.379068770186099
2409,24.73055248027764
2449,24.261133222649606
2489,23.99896080760728
2529,22.26563332131448
2569,23.997784902857718
2609,22.884512890835255
2649,24.934218242292599
2689,25.052886184915648
2729,23.41921064438905
2769,26.128415659272297
2809,26.18461124340202
2849,25.15450726663425
2889,24.406094141632186
2929,25.4149736838433
2969,24.742292756200958
3009,24.496101438363213
3049,24.338841939018683
3089,23.13520178823336
3129,24.410267499249775
3169,24.558547387654895
3209,24.179979155934349
3249,24.99964359959461
3289,24.83982471960952
2,1, 7,21, 0, 7, 0.00,10.00,SummerDesignDay
8,13.572736920571789
10,256406232.40546588
1495,52013821.99049582
2,1, 7,21, 0, 7,10.00,20.00,SummerDesignDay
8,13.627748229152554
10,235609278.21773554
1495,52756480.90654297
2,1, 7,21, 0, 7,20.00,30.00,SummerDesignDay
8,13.682651961920304
10,219442919.49131719
1495,36036105.49035641
2,1, 7,21, 0, 7,30.00,40.00,SummerDesignDay
8,13.737448093244995
10,216539567.0641681
1495,15037937.659028339
2,1, 7,21, 0, 7,40.00,50.00,SummerDesignDay
8,13.792137011831216
10,218106243.0544529
1495,51020012.34437885
2,1, 7,21, 0, 7,50.00,60.00,SummerDesignDay
8,13.846719282840333
10,217168001.7815618
1495,51034718.76225671
2,1, 7,21, 0, 7, 0.00,60.00,SummerDesignDay
1729,21.263664186042179
1769,21.123681041922699
1809,20.0475574356774
1849,21.289349306473537
1889,21.8694854271301
1929,23.950563988502294
1969,23.300327838727275
2009,23.263987203120509
2049,24.37614896671845
2089,18.97803398313244
2129,23.695259991552918
2169,23.240928152625757
2209,24.453107479436527
2249,23.645907622804449
2289,23.677003825324524
2329,25.095782452601204
2369,24.395190099147198
2409,25.198273846632934
2449,24.33310735915394
2489,23.99920920540718
2529,22.240266939929414
2569,23.998327268972266
2609,22.882940929329889
2649,24.921750632826347
2689,24.021084301995626
2729,23.460114279761205
2769,26.089020606015933
2809,24.16713524725388
2849,24.1112495739159
2889,24.005357790564419
2929,24.84214040950641
2969,24.05272073979462
3009,23.46857265115885
3049,23.760029273800595
3089,21.36633979648072
3129,23.85383924319888
3169,23.567646430345879
3209,23.705113190158973
3249,24.277020747273999
3289,23.728596632572605
2,1, 7,21, 0, 8, 0.00,10.00,SummerDesignDay
8,13.978831900527043
10,280643965.05716755
1495,65552086.73418151
2,1, 7,21, 0, 8,10.00,20.00,SummerDesignDay
8,14.110321014287419
10,278263991.3530213
1495,55172166.82883348
2,1, 7,21, 0, 8,20.00,30.00,SummerDesignDay
8,14.241191509616986
10,280301654.2517384
1495,51181624.20617589
2,1, 7,21, 0, 8,30.00,40.00,SummerDesignDay
8,14.371447531304272
10,280476112.8438289
1495,24131032.45234055
2,1, 7,21, 0, 8,40.00,50.00,SummerDesignDay
8,14.501093766564925
10,277743817.7750872
1495,27005445.574084704
2,1, 7,21, 0, 8,50.00,60.00,SummerDesignDay
8,14.630134792273804
10,278832118.34001806
1495,51107449.87258911
2,1, 7,21, 0, 8, 0.00,60.00,SummerDesignDay
1729,22.801812527740937
1769,22.404438444670914
1809,20.666381798406339
1849,21.1841980149695
1889,21.760590290486478
1929,23.99839281666269
1969,23.235194397456426
2009,23.146843762578454
2049,24.000890533430419
2089,19.544461561623565
2129,23.577086895196357
2169,23.191329341517304
2209,24.798998449484704
2249,23.58991890272779
2289,23.57803867783497
2329,24.810546745746
2369,24.158390123603849
2409,25.092350527179794
2449,23.996311879260977
2489,23.99944255469693
2529,22.20998104272611
2569,23.998832496125194
2609,22.872533384350125
2649,25.239655106793689
2689,23.999955796663469
2729,23.803059159005377
2769,26.347016295839965
2809,23.99989392619626
2849,23.999816997272217
2889,23.99996110500226
2929,24.77125959726901
2969,23.999926021802638
3009,23.407770758127925
3049,23.69983634436198
3089,22.019789178748398
3129,23.804291774475926
3169,23.531763846757458
3209,23.659274074744528
3249,24.551463893775723
3289,23.663906065478455
2,1, 7,21, 0, 9, 0.00,10.00,SummerDesignDay
8,14.773641492809972
10,454036871.68371477
1495,57309359.643862668
2,1, 7,21, 0, 9,10.00,20.00,SummerDesignDay
8,14.91640948124148
10,454963463.5284641
1495,51974905.70530083
2,1, 7,21, 0, 9,20.00,30.00,SummerDesignDay
8,15.05843890714102
10,455143720.09409919
1495,51881246.28370098
2,1, 7,21, 0, 9,30.00,40.00,SummerDesignDay
8,15.199735893563798
10,465331234.32044628
1495,51881970.92152054
2,1, 7,21, 0, 9,40.00,50.00,SummerDesignDay
8,15.340306256439395
10,469459099.4072881
1495,51882167.26402321
2,1, 7,21, 0, 9,50.00,60.00,SummerDesignDay
8,15.48015101768072
10,473447757.65018919
1495,51882790.00543619
2,1, 7,21, 0, 9, 0.00,60.00,SummerDesignDay
1729,23.977873256424024
1769,23.86268065077297
1809,21.709979984802094
1849,21.94541888677001
1889,21.73573912909902
1929,23.99997454751701
1969,23.658426628471579
2009,23.722823525497977
2049,23.99997141742534
2089,20.52264135302048
2129,23.488495202304195
2169,23.18982851554092
2209,24.022574512796127
2249,23.583951936715548
2289,23.52275832073118
2329,24.830436754154236
2369,24.201466928408825
2409,25.2049628681924
2449,23.99991831004972
2489,23.999175044401285
2529,22.180302107091888
2569,23.998253214901508
2609,22.8671750804353
2649,26.247339440659475
2689,23.999809150456817
2729,24.722846138579614
2769,27.180613730036986
2809,23.999800752175358
2849,23.99969153364246
2889,23.999705019555905
2929,24.363374987785734
2969,23.999815738801997
3009,23.206484446063006
3049,23.818901359519079
3089,22.038845630016323
3129,23.88439120598959
3169,23.391153829944469
3209,23.847904679957624
3249,24.512219289885676
3289,23.40088452182117
2,1, 7,21, 0,10, 0.00,10.00,SummerDesignDay
8,15.60467292907716
10,601884126.0655106
1495,201450557.5601002
2,1, 7,21, 0,10,10.00,20.00,SummerDesignDay
8,15.72862731650033
10,608736103.916391
1495,130860288.62299586
2,1, 7,21, 0,10,20.00,30.00,SummerDesignDay
8,15.852017409284228
10,622919508.1277412
1495,203143365.17708389
2,1, 7,21, 0,10,30.00,40.00,SummerDesignDay
8,15.974848118364367
10,620466882.0842346
1495,182430417.23567198
2,1, 7,21, 0,10,40.00,50.00,SummerDesignDay
8,16.097123145563505
10,623635125.4621867
1495,144711853.38872025
2,1, 7,21, 0,10,50.00,60.00,SummerDesignDay
8,16.218846351168599
10,628108902.7164717
1495,196320364.38655434
2,1, 7,21, 0,10, 0.00,60.00,SummerDesignDay
1729,23.999005557200435
1769,23.999351986852067
1809,22.74382119000397
1849,22.17769693661826
1889,21.890626845263328
1929,23.99993967030956
1969,23.99110365873301
2009,23.998648181742927
2049,23.999932544957635
2089,22.336118595760256
2129,23.95976992365324
2169,23.86942938065921
2209,23.99938507497504
2249,23.942476803950368
2289,23.9654684226392
2329,24.801831563233184
2369,24.26841952266855
2409,25.003041339609017
2449,23.999816848216864
2489,23.999072369810589
2529,22.17520954052358
2569,23.998240364508005
2609,22.87354756860147
2649,27.133359423461927
2689,23.999733080574378
2729,25.56598533291259
2769,27.93392462947692
2809,23.999803081579729
2849,23.999741038132048
2889,23.99958892626969
2929,24.19573641548097
2969,23.999830193789597
3009,23.11884254246097
3049,23.893220375274486
3089,22.38164686900142
3129,23.929369940565253
3169,23.44495638104574
3209,23.974796543857527
3249,24.448294446364107
3289,23.282574595130396
2,1, 7,21, 0,11, 0.00,10.00,SummerDesignDay
8,16.325793027093189
10,675071834.6114174
1495,168771981.6315502
2,1, 7,21, 0,11,10.00,20.00,SummerDesignDay
8,16.432322158488288
10,680264178.7342821
1495,166007867.04170937
2,1, 7,21, 0,11,20.00,30.00,SummerDesignDay
8,16.538424180249178
10,684562630.4277129
1495,201088034.1087179
2,1, 7,21, 0,11,30.00,40.00,SummerDesignDay
8,16.644108396469087
10,688817614.2439494
1495,199052369.04538966
2,1, 7,21, 0,11,40.00,50.00,SummerDesignDay
8,16.749376736593655
10,693938997.1321975
1495,136017249.59992758
2,1, 7,21, 0,11,50.00,60.00,SummerDesignDay
8,16.854232613237156
10,698392932.3938831
1495,201089828.2378645
2,1, 7,21, 0,11, 0.00,60.00,SummerDesignDay
1729,23.99861887898571
1769,23.99921205274938
1809,23.742501420783314
1849,22.900014306474973
1889,22.267885296987957
1929,23.99986717545727
1969,23.999809377642298
2009,23.99985881358334
2049,23.999853898845755
2089,23.65936741795328
2129,23.99834114405867
2169,23.99844090978033
2209,23.998544236787138
2249,23.99869851905412
2289,23.99839627381802
2329,24.663580743870324
2369,24.2265844001882
2409,24.413177204204094
2449,23.999703008484116
2489,23.999045703039884
2529,22.193541348217328
2569,23.99832594418253
2609,22.883270913156819
2649,27.861216857993325
2689,23.999694656930158
2729,26.34653177916063
2769,28.634520025383038
2809,23.999832292653669
2849,23.999845078086897
2889,23.9995879376803
2929,24.173838959916329
2969,23.99989772352492
3009,23.101479257781194
3049,23.937549993955263
3089,22.92952645651657
3129,23.953274303900384
3169,23.702112419470909
3209,24.03658916588326
3249,24.230207478369726
3289,23.24527669338732
2,1, 7,21, 0,12, 0.00,10.00,SummerDesignDay
8,16.92390823520069
10,747165687.7005231
1495,122125422.4231652
2,1, 7,21, 0,12,10.00,20.00,SummerDesignDay
8,16.99340178950456
10,748707325.4127423
1495,163219964.20347048
2,1, 7,21, 0,12,20.00,30.00,SummerDesignDay
8,17.06272006743463
10,752902309.7103802
1495,139037219.20249636
2,1, 7,21, 0,12,30.00,40.00,SummerDesignDay
8,17.131853229172639
10,756922648.8094765
1495,120833786.86068572
2,1, 7,21, 0,12,40.00,50.00,SummerDesignDay
8,17.200807172194087
10,760941680.4717919
1495,120892880.91954349
2,1, 7,21, 0,12,50.00,60.00,SummerDesignDay
8,17.269582116758607
10,764905984.7918499
1495,120953846.88885032
2,1, 7,21, 0,12, 0.00,60.00,SummerDesignDay
1729,23.99814345141372
1769,23.998893612655807
1809,24.525842444042867
1849,23.22467848210601
1889,22.725796920484837
1929,23.999759065336837
1969,23.999628651638138
2009,23.999738652283864
2049,23.99974651313438
2089,23.99854638778197
2129,23.997283550016843
2169,23.997169357750555
2209,23.997418459903856
2249,23.9973926443344
2289,23.99726867784854
2329,24.469759685236814
2369,24.044837905273139
2409,23.766675105873998
2449,23.999526352318587
2489,23.9987664517203
2529,22.21655321416053
2569,23.997719629048615
2609,22.89048036903489
2649,28.33006407795226
2689,23.999547562474679
2729,26.842608490952786
2769,29.12206340100673
2809,23.99978864659538
2849,23.99983471757714
2889,23.999449737663715
2929,24.19226023879899
2969,23.999926788010428
3009,23.10319860423779
3049,23.9861131275723
3089,23.381793249446827
3129,23.970597740258446
3169,24.00725016826462
3209,24.072257243004715
3249,23.95483378907686
3289,23.231770925968694
2,1, 7,21, 0,13, 0.00,10.00,SummerDesignDay
8,17.32447360221357
10,786805895.111224
1495,192584961.5226751
2,1, 7,21, 0,13,10.00,20.00,SummerDesignDay
8,17.379251291230806
10,791448927.1669566
1495,148237068.10633318
2,1, 7,21, 0,13,20.00,30.00,SummerDesignDay
8,17.433921312061729
10,794994871.9497849
1495,174903615.6474964
2,1, 7,21, 0,13,30.00,40.00,SummerDesignDay
8,17.488473222557489
10,798541907.623893
1495,176144696.04601095
2,1, 7,21, 0,13,40.00,50.00,SummerDesignDay
8,17.542913447755134
10,802155245.9430959
1495,146982987.25719495
2,1, 7,21, 0,13,50.00,60.00,SummerDesignDay
8,17.59724609886134
10,805702664.4411306
1495,193929050.7302174