Program Version,EnergyPlus, Version 8.9.0-eba93e8e1b, YMD=2019.03.19 18:40
1,5,Environment Title[],Latitude[deg],Longitude[deg],Time Zone[],Elevation[m]
2,8,Day of Simulation[],Month[],Day of Month[],DST Indicator[1=yes 0=no],Hour[],StartMinute[],EndMinute[],DayType
3,5,Cumulative Day of Simulation[],Month[],Day of Month[],DST Indicator[1=yes 0=no],DayType  ! When Daily Report Variables Requested
4,2,Cumulative Days of Simulation[],Month[]  ! When Monthly Report Variables Requested
5,1,Cumulative Days of Simulation[] ! When Run Period Report Variables Requested
6,1,Calendar Year of Simulation[] ! When Annual Report Variables Requested
7,9,Environment,Site Outdoor Air Drybulb Temperature [C] !Monthly [Value,Min,Day,Hour,Minute,Max,Day,Hour,Minute]
8,1,Environment,Site Outdoor Air Wetbulb Temperature [C] !TimeStep
943,1,ALL_ST=HOTEL/MOTEL - DINING_FL=STORY 4_SCH=B,Zone Air Temperature [C] !Hourly
944,7,ALL_ST=HOTEL/MOTEL - DINING_FL=STORY 4_SCH=B,Zone Air Relative Humidity [%] !Daily [Value,Min,Hour,Minute,Max,Hour,Minute]
983,1,ALL_ST=HOTEL/MOTEL - LOBBY_FL=STORY 1_SCH=H,Zone Air Temperature [C] !Hourly
984,7,ALL_ST=HOTEL/MOTEL - LOBBY_FL=STORY 1_SCH=H,Zone Air Relative Humidity [%] !Daily [Value,Min,Hour,Minute,Max,Hour,Minute]
1023,1,ALL_ST=HWAY LODGING - DINING_FL=STORY 3_SCH=B,Zone Air Temperature [C] !Hourly
1024,7,ALL_ST=HWAY LODGING - DINING_FL=STORY 3_SCH=B,Zone Air Relative Humidity [%] !Daily [Value,Min,Hour,Minute,Max,Hour,Minute]
1063,1,ALL_ST=LAB - CLASSROOMS_FL=STORY 2_SCH=D,Zone Air Temperature [C] !Hourly
1064,7,ALL_ST=LAB - CLASSROOMS_FL=STORY 2_SCH=D,Zone Air Relative Humidity [%] !Daily [Value,Min,Hour,Minute,Max,Hour,Minute]
1103,1,DU_BT=SPACE FUNCTION_ST=HOTEL/MOTEL - ROOMS_FL=STORY 2_SCHF,Zone Air Temperature [C] !Hourly
1104,7,DU_BT=SPACE FUNCTION_ST=HOTEL/MOTEL - ROOMS_FL=STORY 2_SCHF,Zone Air Relative Humidity [%] !Daily [Value,Min,Hour,Minute,Max,Hour,Minute]
1143,1,DU_BT=SPACE FUNCTION_ST=HWAY LODGING - ROOMS_FL=STORY 2_SCHF,Zone Air Temperature [C] !Hourly
1144,7,DU_BT=SPACE FUNCTION_ST=HWAY LODGING - ROOMS_FL=STORY 2_SCHF,Zone Air Relative Humidity [%] !Daily [Value,Min,Hour,Minute,Max,Hour,Minute]
1183,1,WILD_ST=HOSPITAL CORR. < 2.4M-SCH-E_FL=STORY 4_SCH=B,Zone Air Temperature [C] !Hourly
1184,7,WILD_ST=HOSPITAL CORR. < 2.4M-SCH-E_FL=STORY 4_SCH=B,Zone Air Relative Humidity [%] !Daily [Value,Min,Hour,Minute,Max,Hour,Minute]
1223,1,WILD_ST=HOSPITAL CORR. < 2.4M-SCH-F_FL=STORY 4_SCH=B,Zone Air Temperature [C] !Hourly
1224,7,WILD_ST=HOSPITAL CORR. < 2.4M-SCH-F_FL=STORY 4_SCH=B,Zone Air Relative Humidity [%] !Daily [Value,Min,Hour,Minute,Max,Hour,Minute]
1263,1,WILD_ST=HOSPITAL CORR. < 2.4M-SCH-G_FL=STORY 4_SCH=B,Zone Air Temperature [C] !Hourly
1264,7,WILD_ST=HOSPITAL CORR. < 2.4M-SCH-G_FL=STORY 4_SCH=B,Zone Air Relative Humidity [%] !Daily [Value,Min,Hour,Minute,Max,Hour,Minute]
1303,1,WILD_ST=HOSPITAL CORR. < 2.4M-SCH-H_FL=STORY 4_SCH=B,Zone Air Temperature [C] !Hourly
1304,7,WILD_ST=HOSPITAL CORR. < 2.4M-SCH-H_FL=STORY 4_SCH=B,Zone Air Relative Humidity [%] !Daily [Value,Min,Hour,Minute,Max,Hour,Minute]
1343,1,WILD_ST=HOSPITAL CORR. < 2.4M-SCH-I_FL=STORY 3_SCH=B,Zone Air Temperature [C] !Hourly
1344,7,WILD_ST=HOSPITAL CORR. < 2.4M-SCH-I_FL=STORY 3_SCH=B,Zone Air Relative Humidity [%] !Daily [Value,Min,Hour,Minute,Max,Hour,Minute]
1383,1,WILD_ST=HOSPITAL CORR. >= 2.4M-SCH-A_FL=STORY 3_SCH=B,Zone Air Temperature [C] !Hourly
1384,7,WILD_ST=HOSPITAL CORR. >= 2.4M-SCH-A_FL=STORY 3_SCH=B,Zone Air Relative Humidity [%] !Daily [Value,Min,Hour,Minute,Max,Hour,Minute]
1423,1,WILD_ST=HOSPITAL CORR. >= 2.4M-SCH-B_FL=STORY 1_SCH=B,Zone Air Temperature [C] !Hourly
1424,7,WILD_ST=HOSPITAL CORR. >= 2.4M-SCH-B_FL=STORY 1_SCH=B,Zone Air Relative Humidity [%] !Daily [Value,Min,Hour,Minute,Max,Hour,Minute]
1463,1,WILD_ST=HOSPITAL CORR. >= 2.4M-SCH-C_FL=STORY 3_SCH=B,Zone Air Temperature [C] !Hourly
1464,7,WILD_ST=HOSPITAL CORR. >= 2.4M-SCH-C_FL=STORY 3_SCH=B,Zone Air Relative Humidity [%] !Daily [Value,Min,Hour,Minute,Max,Hour,Minute]
1503,1,WILD_ST=HOSPITAL CORR. >= 2.4M-SCH-D_FL=STORY 3_SCH=B,Zone Air Temperature [C] !Hourly
1504,7,WILD_ST=HOSPITAL CORR. >= 2.4M-SCH-D_FL=STORY 3_SCH=B,Zone Air Relative Humidity [%] !Daily [Value,Min,Hour,Minute,Max,Hour,Minute]
1543,1,WILD_ST=HOSPITAL CORR. >= 2.4M-SCH-E_FL=STORY 2_SCH=B,Zone Air Temperature [C] !Hourly
1544,7,WILD_ST=HOSPITAL CORR. >= 2.4M-SCH-E_FL=STORY 2_SCH=B,Zone Air Relative Humidity [%] !Daily [Value,Min,Hour,Minute,Max,Hour,Minute]
1583,1,WILD_ST=HOSPITAL CORR. >= 2.4M-SCH-F_FL=STORY 1_SCH=B,Zone Air Temperature [C] !Hourly
1584,7,WILD_ST=HOSPITAL CORR. >= 2.4M-SCH-F_FL=STORY 1_SCH=B,Zone Air Relative Humidity [%] !Daily [Value,Min,Hour,Minute,Max,Hour,Minute]
1623,1,WILD_ST=HOSPITAL CORR. >= 2.4M-SCH-G_FL=STORY 1_SCH=B,Zone Air Temperature [C] !Hourly
1624,7,WILD_ST=HOSPITAL CORR. >= 2.4M-SCH-G_FL=STORY 1_SCH=B,Zone Air Relative Humidity [%] !Daily [Value,Min,Hour,Minute,Max,Hour,Minute]
1663,1,WILD_ST=HOSPITAL CORR. >= 2.4M-SCH-H_FL=STORY 1_SCH=B,Zone Air Temperature [C] !Hourly
1664,7,WILD_ST=HOSPITAL CORR. >= 2.4M-SCH-H_FL=STORY 1_SCH=B,Zone Air Relative Humidity [%] !Daily [Value,Min,Hour,Minute,Max,Hour,Minute]
1703,1,WILD_ST=HOSPITAL CORR. >= 2.4M-SCH-I_FL=STORY 2_SCH=B,Zone Air Temperature [C] !Hourly
1704,7,WILD_ST=HOSPITAL CORR. >= 2.4M-SCH-I_FL=STORY 2_SCH=B,Zone Air Relative Humidity [%] !Daily [Value,Min,Hour,Minute,Max,Hour,Minute]
10,1,Electricity:Facility [J] !TimeStep
709,1,Gas:Facility [J] !TimeStep
End of Data Dictionary
1,FORT MCMURRAY AP ANN CLG .4% CONDNS DB=>MWB,  56.65,-111.22,  -7.00, 369.10
2,1, 7,21, 0, 1, 0.00,10.00,SummerDesignDay
8,14.218136923962174
10,241253316.88331754
709,58713371.40169081
2,1, 7,21, 0, 1,10.00,20.00,SummerDesignDay
8,14.171982153293495
10,239271248.68827907
709,58168775.811469409
2,1, 7,21, 0, 1,20.00,30.00,SummerDesignDay
8,14.125744780286427
10,238095861.99095858
709,58302374.49350195
2,1, 7,21, 0, 1,30.00,40.00,SummerDesignDay
8,14.079436086331978
10,236913168.9046452
709,71539841.22394988
2,1, 7,21, 0, 1,40.00,50.00,SummerDesignDay
8,14.033050387896898
10,235734150.21136875
709,74898063.022999
2,1, 7,21, 0, 1,50.00,60.00,SummerDesignDay
8,13.986581233564835
10,234556685.66553284
709,58973685.82008005
2,1, 7,21, 0, 1, 0.00,60.00,SummerDesignDay
943,22.565589707660334
983,23.996967805609584
1023,22.992020161996967
1063,22.97023804723342
1103,23.847861471867544
1143,23.8474771825596
1183,24.00007290419099
1223,23.643154156780395
1263,23.783581395791577
1303,23.702050594916288
1343,25.414751565083266
1383,25.051839582527597
1423,25.57936182544505
1463,25.85652979116429
1503,25.43766543872667
1543,25.510206309703265
1583,25.65082437748407
1623,25.617068029776008
1663,25.597647250390155
1703,25.44250778620273
2,1, 7,21, 0, 2, 0.00,10.00,SummerDesignDay
8,13.95555882260429
10,150554980.91382794
709,55691880.1488139
2,1, 7,21, 0, 2,10.00,20.00,SummerDesignDay
8,13.924507755336454
10,149707024.90953315
709,34583850.27356229
2,1, 7,21, 0, 2,20.00,30.00,SummerDesignDay
8,13.893416042989206
10,149580486.8997794
709,60954086.352970387
2,1, 7,21, 0, 2,30.00,40.00,SummerDesignDay
8,13.862289589689029
10,149438419.43981958
709,62274185.918164629
2,1, 7,21, 0, 2,40.00,50.00,SummerDesignDay
8,13.831134407608739
10,149290813.14165179
709,36146782.069335158
2,1, 7,21, 0, 2,50.00,60.00,SummerDesignDay
8,13.799938415548118
10,149154224.18930576
709,64257480.98981865
2,1, 7,21, 0, 2, 0.00,60.00,SummerDesignDay
943,22.013682635126533
983,23.99700128341135
1023,22.29361657608766
1063,22.672645927766497
1103,23.847772186066906
1143,23.84747466641227
1183,23.559385443177694
1223,23.240091375070297
1263,23.354978316432097
1303,23.24842742793084
1343,25.093729338039024
1383,24.790350183695045
1423,25.3038131749575
1463,25.567491512413274
1503,25.15554064072847
1543,25.249274377865488
1583,25.353211523769486
1623,25.320023864817104
1663,25.300805905891097
1703,25.200012628031997
2,1, 7,21, 0, 3, 0.00,10.00,SummerDesignDay
8,13.776521671948676
10,69474146.34274236
709,27191250.434198277
2,1, 7,21, 0, 3,10.00,20.00,SummerDesignDay
8,13.753085235778466
10,69131094.33291824
709,27038694.63798286
2,1, 7,21, 0, 3,20.00,30.00,SummerDesignDay
8,13.729636002354969
10,69145270.70246613
709,27181243.24472933
2,1, 7,21, 0, 3,30.00,40.00,SummerDesignDay
8,13.706147375533054
10,70068874.63538307
709,27290314.20647783
2,1, 7,21, 0, 3,40.00,50.00,SummerDesignDay
8,13.682651961920304
10,68711724.47447549
709,2338669.299439924
2,1, 7,21, 0, 3,50.00,60.00,SummerDesignDay
8,13.659136670643687
10,69166830.37438567
709,27494605.56954478
2,1, 7,21, 0, 3, 0.00,60.00,SummerDesignDay
943,20.805332811863534
983,23.997717454661694
1023,21.61798008750486
1063,22.445098595935439
1103,23.880960614598125
1143,23.880765003545905
1183,22.695927312550184
1223,22.418793841251924
1263,22.51157339930764
1303,22.379705478740246
1343,24.479195670601226
1383,24.234483904732469
1423,24.71129996312934
1463,24.996023848028146
1503,24.57821431967521
1543,24.725616404501
1583,24.738102547343517
1623,24.70942288857221
1663,24.68218623352372
1703,24.689340057582048
2,1, 7,21, 0, 4, 0.00,10.00,SummerDesignDay
8,13.63560137410855
10,65621133.98575988
709,27063544.519069148
2,1, 7,21, 0, 4,10.00,20.00,SummerDesignDay
8,13.612040802606578
10,65110019.01673418
709,2682697.414905434
2,1, 7,21, 0, 4,20.00,30.00,SummerDesignDay
8,13.58846620506876
10,64948142.47598983
709,27207520.327042864
2,1, 7,21, 0, 4,30.00,40.00,SummerDesignDay
8,13.56487178447336
10,64805878.97743861
709,27389871.79220133
2,1, 7,21, 0, 4,40.00,50.00,SummerDesignDay
8,13.541257354069103
10,64648068.722720209
709,3026724.9832807767
2,1, 7,21, 0, 4,50.00,60.00,SummerDesignDay
8,13.517617463812285
10,64507169.91507597
709,27594474.12599902
2,1, 7,21, 0, 4, 0.00,60.00,SummerDesignDay
943,20.10465060535134
983,23.99709426643643
1023,21.21353083564465
1063,22.21823438404641
1103,23.847963456579394
1143,23.84779229932614
1183,22.134361234467265
1223,21.868573947129176
1263,21.95029897682842
1303,21.791989184054818
1343,24.078503975419954
1383,23.8480770019201
1423,24.36743740044116
1463,24.61509217409477
1503,24.160348766930594
1543,24.402128619728658
1583,24.375944531366448
1623,24.35544190912492
1663,24.306557900174359
1703,24.36477262877037
2,1, 7,21, 0, 5, 0.00,10.00,SummerDesignDay
8,13.50185415824011
10,64381927.04857298
709,3221692.9584254885
2,1, 7,21, 0, 5,10.00,20.00,SummerDesignDay
8,13.486076034032447
10,64414237.215610068
709,27725877.983052333
2,1, 7,21, 0, 5,20.00,30.00,SummerDesignDay
8,13.470289340350983
10,64455129.63476994
709,27873985.256744818
2,1, 7,21, 0, 5,30.00,40.00,SummerDesignDay
8,13.454493322631063
10,64516213.2827419
709,3451046.52736286
2,1, 7,21, 0, 5,40.00,50.00,SummerDesignDay
8,13.438688835118548
10,64620792.64945576
709,27994488.458152478
2,1, 7,21, 0, 5,50.00,60.00,SummerDesignDay
8,13.422888173889437
10,64716025.82342833
709,3603947.2567872798
2,1, 7,21, 0, 5, 0.00,60.00,SummerDesignDay
943,19.788213396562957
983,23.997122430015833
1023,20.968348320323377
1063,22.01216632991827
1103,23.848134560584414
1143,23.847659432197959
1183,21.855718861918417
1223,21.587175948318988
1263,21.829603762906129
1303,21.58531765831009
1343,23.82367300751558
1383,23.684502917904344
1423,24.208914997271493
1463,24.374618832012904
1503,23.870687297972663
1543,24.27589504392337
1583,24.20795892044994
1623,24.19384306620854
1663,24.125666000759187
1703,24.171260691452699
2,1, 7,21, 0, 6, 0.00,10.00,SummerDesignDay
8,13.438688835118548
10,64890743.756323818
709,28526495.31970521
2,1, 7,21, 0, 6,10.00,20.00,SummerDesignDay
8,13.454493322631063
10,65395760.907403919
709,28515549.83970593
2,1, 7,21, 0, 6,20.00,30.00,SummerDesignDay
8,13.470289340350983
10,65575151.04711476
709,28444834.63489254
2,1, 7,21, 0, 6,30.00,40.00,SummerDesignDay
8,13.486076034032447
10,65758071.26742042
709,28373283.339528618
2,1, 7,21, 0, 6,40.00,50.00,SummerDesignDay
8,13.50185415824011
10,65935015.32200542
709,28301263.432261569
2,1, 7,21, 0, 6,50.00,60.00,SummerDesignDay
8,13.517617463812285
10,66103395.34592076
709,3160553.350977212
2,1, 7,21, 0, 6, 0.00,60.00,SummerDesignDay
943,19.810371716988699
983,23.99710068526969
1023,20.90429315965874
1063,21.915918735371706
1103,23.849820532674327
1143,23.847340675169794
1183,21.893243032013236
1223,21.639543470932826
1263,22.50586116237257
1303,21.765555745390939
1343,23.696118841034047
1383,23.942118201437965
1423,24.12774009670441
1463,24.221513436987669
1503,23.71184118235264
1543,24.27735040378408
1583,24.12670821369611
1623,24.107643075578485
1663,24.02130806606047
1703,24.09241679305123
2,1, 7,21, 0, 7, 0.00,10.00,SummerDesignDay
8,13.572736920571789
10,69627552.69674073
709,55326515.041913967
2,1, 7,21, 0, 7,10.00,20.00,SummerDesignDay
8,13.627748229152554
10,70581192.60511981
709,28981345.28820003
2,1, 7,21, 0, 7,20.00,30.00,SummerDesignDay
8,13.682651961920304
10,70856748.63494537
709,55114202.13666187
2,1, 7,21, 0, 7,30.00,40.00,SummerDesignDay
8,13.737448093244995
10,71134012.61784426
709,28429400.58594682
2,1, 7,21, 0, 7,40.00,50.00,SummerDesignDay
8,13.792137011831216
10,71415882.9890858
709,28199890.802653724
2,1, 7,21, 0, 7,50.00,60.00,SummerDesignDay
8,13.846719282840333
10,71661410.445933
709,54274613.5163497
2,1, 7,21, 0, 7, 0.00,60.00,SummerDesignDay
943,20.277955655488495
983,23.997028223559569
1023,21.03032987937573
1063,22.03062846525736
1103,23.850738693119316
1143,23.84668079543114
1183,22.287929836585254
1223,22.05797004111476
1263,23.4824432914878
1303,22.068309784367938
1343,23.729116352887418
1383,24.380071715056375
1423,24.14050497374576
1463,24.187443248633107
1503,23.717777146895249
1543,24.23221062441155
1583,24.16099274147649
1623,24.11246846624824
1663,24.008515692406019
1703,24.149326448355596
2,1, 7,21, 0, 8, 0.00,10.00,SummerDesignDay
8,13.978831900527043
10,78279265.75960832
709,56241057.03270483
2,1, 7,21, 0, 8,10.00,20.00,SummerDesignDay
8,14.110321014287419
10,79512513.73674944
709,36466423.9792266
2,1, 7,21, 0, 8,20.00,30.00,SummerDesignDay
8,14.241191509616986
10,79955907.76044575
709,47211951.06350825
2,1, 7,21, 0, 8,30.00,40.00,SummerDesignDay
8,14.371447531304272
10,80385232.29863627
709,55589253.86526049
2,1, 7,21, 0, 8,40.00,50.00,SummerDesignDay
8,14.501093766564925
10,79073445.52423467
709,55587123.45039185
2,1, 7,21, 0, 8,50.00,60.00,SummerDesignDay
8,14.630134792273804
10,78611017.28517519
709,55588307.02053774
2,1, 7,21, 0, 8, 0.00,60.00,SummerDesignDay
943,21.459081191814055
983,23.99739774067722
1023,21.63825517300776
1063,22.48567227164683
1103,23.871992878864658
1143,23.86824374568162
1183,23.2205742474775
1223,23.03252818348895
1263,24.78526326209025
1303,22.95168491909509
1343,23.995713960804769
1383,24.9597034126121
1423,24.272451902737925
1463,24.325284812287398
1503,23.968946206594244
1543,24.367971178764504
1583,24.33902800341748
1623,24.243264138489726
1663,24.124352730497134
1703,24.404460591796295
2,1, 7,21, 0, 9, 0.00,10.00,SummerDesignDay
8,14.773641492809972
10,101879564.36732453
709,79199912.6196692
2,1, 7,21, 0, 9,10.00,20.00,SummerDesignDay
8,14.91640948124148
10,110477573.43086413
709,76665503.817788
2,1, 7,21, 0, 9,20.00,30.00,SummerDesignDay
8,15.05843890714102
10,117476118.13549617
709,93997341.06068309
2,1, 7,21, 0, 9,30.00,40.00,SummerDesignDay
8,15.199735893563798
10,124147326.57922676
709,73030613.26270555
2,1, 7,21, 0, 9,40.00,50.00,SummerDesignDay
8,15.340306256439395
10,130590334.60089714
709,83597992.49204658
2,1, 7,21, 0, 9,50.00,60.00,SummerDesignDay
8,15.48015101768072
10,139840977.79946987
709,93993717.01239078
2,1, 7,21, 0, 9, 0.00,60.00,SummerDesignDay
943,23.356272336624149
983,23.99816715831616
1023,22.770656329599619
1063,23.739068235372004
1103,23.90422466230684
1143,23.90175448743612
1183,23.99812688531573
1223,23.75020868979539
1263,25.66919629024376
1303,23.719824113040887
1343,24.015871435073607
1383,25.10011729152417
1423,24.24715226299307
1463,24.285496867123
1503,23.900662220010845
1543,24.354726737994139
1583,24.37766050254314
1623,24.22380864627702
1663,24.090545579231926
1703,24.359049936426719
2,1, 7,21, 0,10, 0.00,10.00,SummerDesignDay
8,15.60467292907716
10,261185851.02071703
709,87605928.1540059
2,1, 7,21, 0,10,10.00,20.00,SummerDesignDay
8,15.72862731650033
10,269838373.4836137
709,75814715.16899055
2,1, 7,21, 0,10,20.00,30.00,SummerDesignDay
8,15.852017409284228
10,278978441.98829379
709,95864330.12681824
2,1, 7,21, 0,10,30.00,40.00,SummerDesignDay
8,15.974848118364367
10,283420594.2864139
709,97316597.79469164
2,1, 7,21, 0,10,40.00,50.00,SummerDesignDay
8,16.097123145563505
10,290293479.0024754
709,97309271.30420859
2,1, 7,21, 0,10,50.00,60.00,SummerDesignDay
8,16.218846351168599
10,296369198.2631231
709,96436988.23135078
2,1, 7,21, 0,10, 0.00,60.00,SummerDesignDay
943,23.99930194320329
983,23.99769102445494
1023,23.907327890704605
1063,23.99856870760256
1103,23.872891288392805
1143,23.86911454738716
1183,23.9997782092676
1223,23.658800533856746
1263,25.507925974332016
1303,23.712221384373085
1343,23.638967458075429
1383,24.492675703305978
1423,23.99447537462896
1463,23.913590179612755
1503,23.213251580065927
1543,24.048572612415759
1583,24.19386766313463
1623,23.982852257451098
1663,23.826249760961884
1703,23.752734218482727
2,1, 7,21, 0,11, 0.00,10.00,SummerDesignDay
8,16.325793027093189
10,347278304.98000147
709,63876791.34615819
2,1, 7,21, 0,11,10.00,20.00,SummerDesignDay
8,16.432322158488288
10,352903390.43210199
709,94306706.6436559
2,1, 7,21, 0,11,20.00,30.00,SummerDesignDay
8,16.538424180249178
10,358312576.3600896
709,94309278.4492851
2,1, 7,21, 0,11,30.00,40.00,SummerDesignDay
8,16.644108396469087
10,363599986.2535826
709,62841721.08252965
2,1, 7,21, 0,11,40.00,50.00,SummerDesignDay
8,16.749376736593655
10,368748268.7650467
709,94307076.8124559
2,1, 7,21, 0,11,50.00,60.00,SummerDesignDay
8,16.854232613237156
10,373764186.95978459
709,94309447.87079087
2,1, 7,21, 0,11, 0.00,60.00,SummerDesignDay
943,23.99860447343872
983,23.997421511291603
1023,23.999418761758276
1063,23.998117291942383
1103,23.851496045740107
1143,23.84866928656381
1183,23.999743512259639
1223,23.78972504231613
1263,25.016687129064679
1303,23.73986793013304
1343,23.526437866011816
1383,23.830628254791696
1423,23.78106201927963
1463,23.662307488657324
1503,22.71827123816261
1543,23.8137950519471
1583,24.04030391398408
1623,23.790964453605583
1663,23.625615176518026
1703,23.267420364471776
2,1, 7,21, 0,12, 0.00,10.00,SummerDesignDay
8,16.92390823520069
10,422076261.11711278
709,60413557.67173714
2,1, 7,21, 0,12,10.00,20.00,SummerDesignDay
8,16.99340178950456
10,426535252.6107798
709,74035261.929097
2,1, 7,21, 0,12,20.00,30.00,SummerDesignDay
8,17.06272006743463
10,430388993.8291727
709,76454172.08964037
2,1, 7,21, 0,12,30.00,40.00,SummerDesignDay
8,17.131853229172639
10,434112775.2224096
709,60198761.379452358
2,1, 7,21, 0,12,40.00,50.00,SummerDesignDay
8,17.200807172194087
10,437580671.4333629
709,90309213.24626895
2,1, 7,21, 0,12,50.00,60.00,SummerDesignDay
8,17.269582116758607
10,440859508.311794
709,60176702.51053806
2,1, 7,21, 0,12, 0.00,60.00,SummerDesignDay
943,23.998356996015209
983,23.997529325306535
1023,23.999283194175765
1063,23.997708304659523
1103,23.850643386596447
1143,23.850052907896708
1183,23.99975662541202
1223,23.952431488369546
1263,24.438730686590359
1303,23.765695933091878
1343,23.590193702205185
1383,23.264032697213066
1423,23.669738273796125
1463,23.557985714380409
1503,22.403637629705967
1543,23.68361302776276
1583,23.962460018155629
1623,23.712577206323294
1663,23.537483062609409
1703,22.922605698569467
2,1, 7,21, 0,13, 0.00,10.00,SummerDesignDay
8,17.32447360221357
10,442182874.68623808
709,78224284.07807617
2,1, 7,21, 0,13,10.00,20.00,SummerDesignDay
8,17.379251291230806
10,444395926.8564887
709,70097121.58196076
2,1, 7,21, 0,13,20.00,30.00,SummerDesignDay
8,17.433921312061729
10,446811508.8490288
709,59267728.31341125
2,1, 7,21, 0,13,30.00,40.00,SummerDesignDay
8,17.488473222557489
10,449187361.7990688
709,76306486.70332313
2,1, 7,21, 0,13,40.00,50.00,SummerDesignDay
8,17.542913447755134
10,451432460.5670115
709,71899649.35162933
2,1, 7,21, 0,13,50.00,60.00,SummerDesignDay
8,17.59724609886134
10,453567469.5074238
709,59265884.9590051
2,1, 7,21, 0,13, 0.00,60.00,SummerDesignDay
943,23.997770859838185
983,23.997417341090246
1023,23.998920108127196
1063,23.997600995268575
1103,23.85020760364409
1143,23.85087777572835
1183,23.99989021795685
1223,24.0602081576375
1263,24.18731411308799
1303,23.802892868220089
1343,23.704758440443375
1383,23.01925558142805
1423,23.594782413754094
1463,23.548865797983507
1503,22.27375969005617
1543,23.61802018693021
1583,23.894666534564185
1623,23.678283594315187
1663,23.491240344613798
1703,22.723653671764806
2,1, 7,21, 0,14, 0.00,10.00,SummerDesignDay
8,17.6311450462694
10,454411281.2476094
709,92525363.99762288
2,1, 7,21, 0,14,10.00,20.00,SummerDesignDay
8,17.665000449016245
10,456059504.4900306
709,61938115.13020056
2,1, 7,21, 0,14,20.00,30.00,SummerDesignDay
8,17.698812743128934
10,457255291.78494837
709,92934094.31039383
2,1, 7,21, 0,14,30.00,40.00,SummerDesignDay
8,17.732582050940107
10,458423264.0653788
709,77049718.0097819
2,1, 7,21, 0,14,40.00,50.00,SummerDesignDay
8,17.766307345121004
10,459549669.08517369
709,77815150.89510162
2,1, 7,21, 0,14,50.00,60.00,SummerDesignDay
8,17.79999023167558
10,460668382.994246
709,92937715.72912866
2,1, 7,21, 0,14, 0.00,60.00,SummerDesignDay
943,23.997143357620045
983,23.997260351483495
1023,23.99859367823186
1063,23.997479540928013
1103,23.849980903940979
1143,23.85121287682185
1183,23.999862338126805
1223,24.05507901977062
1263,24.11451853834322
1303,23.846349581699813
1343,23.805365284802169
1383,22.950672404743718
1423,23.54176758314453
1463,23.60245683031302
1503,22.303949476001184
1543,23.60101335168024
1583,23.83489686109664
1623,23.66797233189681
1663,23.467504553295716
1703,22.668869098492068
2,1, 7,21, 0,15, 0.00,10.00,SummerDesignDay
8,17.79999023167558
10,459207572.7449666
709,60264719.18661323
2,1, 7,21, 0,15,10.00,20.00,SummerDesignDay
8,17.79999023167558
10,458634381.5813024
709,77275715.69463939
2,1, 7,21, 0,15,20.00,30.00,SummerDesignDay
8,17.79999023167558
10,458313169.61174628
709,73018402.17696817
2,1, 7,21, 0,15,30.00,40.00,SummerDesignDay
8,17.79999023167558
10,457906115.9513086
709,60123386.999810788
2,1, 7,21, 0,15,40.00,50.00,SummerDesignDay
8,17.79999023167558
10,457358329.73848339
709,90192670.99683422
2,1, 7,21, 0,15,50.00,60.00,SummerDesignDay
8,17.79999023167558
10,456696551.4212544
709,60098888.49481034
2,1, 7,21, 0,15, 0.00,60.00,SummerDesignDay
943,23.997302593781418
983,23.997204017537525
1023,23.998773532549934
1063,23.997430335306729
1103,23.849765344215496
1143,23.850947588989169
1183,23.9998928206565
1223,23.908453838686808
1263,24.082929053408859
1303,23.889252197544903
1343,23.87335576175521
1383,23.00842804549491
1423,23.54496707431757
1463,23.729775190466559
1503,22.6764500857181
1543,23.649990762644277
1583,23.827589740827695
1623,23.70973160353194
1663,23.499786015738665
1703,22.958429094847337
2,1, 7,21, 0,16, 0.00,10.00,SummerDesignDay
8,17.759562446305357
10,452781977.4160553
709,57156409.24254768
2,1, 7,21, 0,16,10.00,20.00,SummerDesignDay
8,17.71907809634183
10,449347648.88603529
709,56847793.902892109
2,1, 7,21, 0,16,20.00,30.00,SummerDesignDay
8,17.67853788661001
10,446372124.889893
709,56849808.11913826
2,1, 7,21, 0,16,30.00,40.00,SummerDesignDay
8,17.63791796367351
10,443132415.81708416
709,56852235.680056359
2,1, 7,21, 0,16,40.00,50.00,SummerDesignDay
8,17.59724609886134
10,439657808.5623993
709,57533168.669474598
2,1, 7,21, 0,16,50.00,60.00,SummerDesignDay
8,17.55650676726033
10,435999313.93110498
709,62804942.45718166
2,1, 7,21, 0,16, 0.00,60.00,SummerDesignDay
943,23.998046939297823
983,23.997175595962675
1023,23.999195428399749
1063,23.997394827971008
1103,23.849741612234824
1143,23.85028011802976
1183,23.99993712956093
1223,23.67372288342395
1263,24.0544897429992
1303,23.919336152865659
1343,23.952658593416428
1383,23.19704410626554
1423,23.63737004622155
1463,23.951538679620638
1503,23.343872204794708
1543,23.784126334551769
1583,23.907209487477826
1623,23.829085424917989
1663,23.62130557408624
1703,23.54779184365618
2,1, 7,21, 0,17, 0.00,10.00,SummerDesignDay
8,17.50209486331892
10,422342744.2073021
709,48989413.13833638
2,1, 7,21, 0,17,10.00,20.00,SummerDesignDay
8,17.447570789624618
10,417404076.8477562
709,55314158.35518041
2,1, 7,21, 0,17,20.00,30.00,SummerDesignDay
8,17.392929544208135
10,412647644.53594329
709,55317109.29317997
2,1, 7,21, 0,17,30.00,40.00,SummerDesignDay
8,17.33818013976614
10,408174256.51129618
709,55321334.69897243
2,1, 7,21, 0,17,40.00,50.00,SummerDesignDay
8,17.283317298559309
10,404051269.14324608
709,55325290.65292992
2,1, 7,21, 0,17,50.00,60.00,SummerDesignDay
8,17.22833552437677
10,399897187.82820877
709,30700720.295909268
2,1, 7,21, 0,17, 0.00,60.00,SummerDesignDay
943,23.998753953656899
983,23.99710971345118
1023,23.999525619969096
1063,23.99802947296834
1103,23.849639582894726
1143,23.849734753817974
1183,23.99982835467551
1223,23.52004535525981
1263,24.033037135400194
1303,23.93795658516441
1343,24.162653107725605
1383,23.523529470999379
1423,23.851661652877924
1463,24.280954722804635
1503,24.047937842062824
1543,24.024287406528147
1583,24.105234354460767
1623,24.05284669262848
1663,23.8635764746878
1703,24.165492653780537
2,1, 7,21, 0,18, 0.00,10.00,SummerDesignDay
8,17.159453019160176
10,386795285.0502148
709,51004894.09515298
2,1, 7,21, 0,18,10.00,20.00,SummerDesignDay
8,17.090391773337136
10,381863360.5272199
709,53868739.22193069
2,1, 7,21, 0,18,20.00,30.00,SummerDesignDay
8,17.021151077964786
10,377200669.2261336
709,26921025.29165775
2,1, 7,21, 0,18,30.00,40.00,SummerDesignDay
8,16.951729380464653
10,372561171.90604636
709,53853187.61382131
2,1, 7,21, 0,18,40.00,50.00,SummerDesignDay
8,16.882126503829249
10,367962857.8231838
709,30750408.71328879
2,1, 7,21, 0,18,50.00,60.00,SummerDesignDay
8,16.812341807494034
10,363453493.7282775
709,50032358.41974644
2,1, 7,21, 0,18, 0.00,60.00,SummerDesignDay
943,23.998759280566718
983,23.99694555748364
1023,23.99943695817088
1063,23.99886662249494
1103,23.84932736567036
1143,23.849317397861097
1183,23.99984704364323
1223,23.527027842427374
1263,24.01751166860021
1303,23.943601146456705
1343,24.507686325186385
1383,23.934439362737409
1423,24.159412851892168
1463,24.66934132574474
1503,24.723341729115153
1543,24.33663021301038
1583,24.39286536543399
1623,24.353118565897338
1663,24.19229444107418
1703,24.754615464643348
2,1, 7,21, 0,19, 0.00,10.00,SummerDesignDay
8,16.707321072823203
10,359488825.13994196
709,55134849.80750243
2,1, 7,21, 0,19,10.00,20.00,SummerDesignDay
8,16.601881826644556
10,354332625.0866831
709,55291427.73334411
2,1, 7,21, 0,19,20.00,30.00,SummerDesignDay
8,16.496030555252849
10,348991899.2311465
709,40386591.63297003
2,1, 7,21, 0,19,30.00,40.00,SummerDesignDay
8,16.389760181474104
10,343770244.5170203
709,42537317.24636846
2,1, 7,21, 0,19,40.00,50.00,SummerDesignDay
8,16.283067654262039
10,338649354.2654162
709,55281161.19904457
2,1, 7,21, 0,19,50.00,60.00,SummerDesignDay
8,16.17595057957811
10,333594233.5874878
709,55284308.19088264
2,1, 7,21, 0,19, 0.00,60.00,SummerDesignDay
943,23.99836771308395
983,23.996709004934315
1023,23.99910890864076
1063,23.999259991271015
1103,23.84898416401565
1143,23.84894934033005
1183,23.999857723033334
1223,23.591450853500317
1263,23.990116793860016
1303,23.96273084679881
1343,24.85967837696498
1383,24.335695573416588
1423,24.51131629827309
1463,25.052633297214098
1503,25.251821687372215
1543,24.683907630687089
1583,24.720299556687754
1623,24.686308641601653
1663,24.55511872649006
1703,25.214798257596529
2,1, 7,21, 0,20, 0.00,10.00,SummerDesignDay
8,16.097123145563505
10,354601296.02349176
709,58858678.98690188
2,1, 7,21, 0,20,10.00,20.00,SummerDesignDay
8,16.018070242471564
10,352208755.2225049
709,83922497.37575232
2,1, 7,21, 0,20,20.00,30.00,SummerDesignDay
8,15.938779752340516
10,348680288.04383787
709,64276781.62137694
2,1, 7,21, 0,20,30.00,40.00,SummerDesignDay
8,15.85926152575189
10,345126779.59418287
709,59274255.06689935
2,1, 7,21, 0,20,40.00,50.00,SummerDesignDay
8,15.779503718563929
10,341469817.0013055
709,82158526.36304102
2,1, 7,21, 0,20,50.00,60.00,SummerDesignDay
8,15.699515709672767
10,337696405.55841997
709,66041879.26781395
2,1, 7,21, 0,20, 0.00,60.00,SummerDesignDay
943,23.998009558703918
983,23.99666076126725
1023,23.998560646345056
1063,23.998916412895786
1103,23.84861416431804
1143,23.848500298834599
1183,23.999870410282595
1223,23.624329584294818
1263,23.943631729580756
1303,24.05818558461736
1343,25.106275245789435
1383,24.6198729698354
1423,24.827880221577585
1463,25.35037432670875
1503,25.482066125680779
1543,25.042882087937774
1583,25.006822692806379
1623,24.976328210490668
1663,24.873686175034519
1703,25.404892373401009
2,1, 7,21, 0,21, 0.00,10.00,SummerDesignDay
8,15.63389147320404
10,341480622.98231658
709,97717203.88718793
2,1, 7,21, 0,21,10.00,20.00,SummerDesignDay
8,15.56810827419793
10,339265389.02938458
709,95636495.79152666
2,1, 7,21, 0,21,20.00,30.00,SummerDesignDay
8,15.502170882753524
10,335828476.13840988
709,85493301.2658365
2,1, 7,21, 0,21,30.00,40.00,SummerDesignDay
8,15.436068032613852
10,332372760.8966902
709,85332657.42473257
2,1, 7,21, 0,21,40.00,50.00,SummerDesignDay
8,15.369804371206009
10,329003544.9454531
709,95840753.35344422
2,1, 7,21, 0,21,50.00,60.00,SummerDesignDay
8,15.303384603594449
10,325251386.9981646
709,98832873.20384552
2,1, 7,21, 0,21, 0.00,60.00,SummerDesignDay
943,23.998124216687314
983,23.996727744270744
1023,23.998191754724688
1063,23.998887093452966
1103,23.848118598495458
1143,23.847825316249538
1183,23.999899804308709
1223,23.632323138617776
1263,23.894087184883487
1303,24.030631515696049
1343,25.261908683900218
1383,24.809289208161233
1423,25.077741322350279
1463,25.558992309667234
1503,25.43317101923192
1543,25.28590092495189
1583,25.224517353804847
1623,25.195351439493768
1663,25.120217420731057
1703,25.338309256477087