Program Version,EnergyPlus, Version 8.9.0-eba93e8e1b, YMD=2019.03.19 18:34
1,5,Environment Title[],Latitude[deg],Longitude[deg],Time Zone[],Elevation[m]
2,8,Day of Simulation[],Month[],Day of Month[],DST Indicator[1=yes 0=no],Hour[],StartMinute[],EndMinute[],DayType
3,5,Cumulative Day of Simulation[],Month[],Day of Month[],DST Indicator[1=yes 0=no],DayType  ! When Daily Report Variables Requested
4,2,Cumulative Days of Simulation[],Month[]  ! When Monthly Report Variables Requested
5,1,Cumulative Days of Simulation[] ! When Run Period Report Variables Requested
6,1,Calendar Year of Simulation[] ! When Annual Report Variables Requested
7,9,Environment,Site Outdoor Air Drybulb Temperature [C] !Monthly [Value,Min,Day,Hour,Minute,Max,Day,Hour,Minute]
8,1,Environment,Site Outdoor Air Wetbulb Temperature [C] !TimeStep
927,1,WHOLEBUILDING-AUTOMOTIVE FACILITY ZN,Zone Air Temperature [C] !Hourly
928,7,WHOLEBUILDING-AUTOMOTIVE FACILITY ZN,Zone Air Relative Humidity [%] !Daily [Value,Min,Hour,Minute,Max,Hour,Minute]
967,1,WHOLEBUILDING-CONVENTION CENTRE ZN,Zone Air Temperature [C] !Hourly
968,7,WHOLEBUILDING-CONVENTION CENTRE ZN,Zone Air Relative Humidity [%] !Daily [Value,Min,Hour,Minute,Max,Hour,Minute]
1007,1,WHOLEBUILDING-COURTHOUSE ZN,Zone Air Temperature [C] !Hourly
1008,7,WHOLEBUILDING-COURTHOUSE ZN,Zone Air Relative Humidity [%] !Daily [Value,Min,Hour,Minute,Max,Hour,Minute]
1047,1,WHOLEBUILDING-DINING - BAR/LOUNGE ZN,Zone Air Temperature [C] !Hourly
1048,7,WHOLEBUILDING-DINING - BAR/LOUNGE ZN,Zone Air Relative Humidity [%] !Daily [Value,Min,Hour,Minute,Max,Hour,Minute]
1087,1,WHOLEBUILDING-DINING - CAFETERIA ZN,Zone Air Temperature [C] !Hourly
1088,7,WHOLEBUILDING-DINING - CAFETERIA ZN,Zone Air Relative Humidity [%] !Daily [Value,Min,Hour,Minute,Max,Hour,Minute]
1127,1,WHOLEBUILDING-DINING - FAMILY ZN,Zone Air Temperature [C] !Hourly
1128,7,WHOLEBUILDING-DINING - FAMILY ZN,Zone Air Relative Humidity [%] !Daily [Value,Min,Hour,Minute,Max,Hour,Minute]
1167,1,WHOLEBUILDING-DORMITORY ZN,Zone Air Temperature [C] !Hourly
1168,7,WHOLEBUILDING-DORMITORY ZN,Zone Air Relative Humidity [%] !Daily [Value,Min,Hour,Minute,Max,Hour,Minute]
1207,1,WHOLEBUILDING-EXERCISE CENTRE ZN,Zone Air Temperature [C] !Hourly
1208,7,WHOLEBUILDING-EXERCISE CENTRE ZN,Zone Air Relative Humidity [%] !Daily [Value,Min,Hour,Minute,Max,Hour,Minute]
1247,1,WHOLEBUILDING-FIRE STATION ZN,Zone Air Temperature [C] !Hourly
1248,7,WHOLEBUILDING-FIRE STATION ZN,Zone Air Relative Humidity [%] !Daily [Value,Min,Hour,Minute,Max,Hour,Minute]
1287,1,WHOLEBUILDING-GYMNASIUM ZN,Zone Air Temperature [C] !Hourly
1288,7,WHOLEBUILDING-GYMNASIUM ZN,Zone Air Relative Humidity [%] !Daily [Value,Min,Hour,Minute,Max,Hour,Minute]
1327,1,WHOLEBUILDING-HEALTH-CARE CLINIC ZN,Zone Air Temperature [C] !Hourly
1328,7,WHOLEBUILDING-HEALTH-CARE CLINIC ZN,Zone Air Relative Humidity [%] !Daily [Value,Min,Hour,Minute,Max,Hour,Minute]
1367,1,WHOLEBUILDING-HOSPITAL ZN,Zone Air Temperature [C] !Hourly
1368,7,WHOLEBUILDING-HOSPITAL ZN,Zone Air Relative Humidity [%] !Daily [Value,Min,Hour,Minute,Max,Hour,Minute]
1407,1,WHOLEBUILDING-HOTEL ZN,Zone Air Temperature [C] !Hourly
1408,7,WHOLEBUILDING-HOTEL ZN,Zone Air Relative Humidity [%] !Daily [Value,Min,Hour,Minute,Max,Hour,Minute]
1447,1,WHOLEBUILDING-LIBRARY ZN,Zone Air Temperature [C] !Hourly
1448,7,WHOLEBUILDING-LIBRARY ZN,Zone Air Relative Humidity [%] !Daily [Value,Min,Hour,Minute,Max,Hour,Minute]
1487,1,WHOLEBUILDING-MANUFACTURING FACILITY ZN,Zone Air Temperature [C] !Hourly
1488,7,WHOLEBUILDING-MANUFACTURING FACILITY ZN,Zone Air Relative Humidity [%] !Daily [Value,Min,Hour,Minute,Max,Hour,Minute]
1527,1,WHOLEBUILDING-MOTEL ZN,Zone Air Temperature [C] !Hourly
1528,7,WHOLEBUILDING-MOTEL ZN,Zone Air Relative Humidity [%] !Daily [Value,Min,Hour,Minute,Max,Hour,Minute]
1567,1,WHOLEBUILDING-MOTION PICTURE THEATRE ZN,Zone Air Temperature [C] !Hourly
1568,7,WHOLEBUILDING-MOTION PICTURE THEATRE ZN,Zone Air Relative Humidity [%] !Daily [Value,Min,Hour,Minute,Max,Hour,Minute]
1607,1,WHOLEBUILDING-MULTI-UNIT RESIDENTIAL ZN,Zone Air Temperature [C] !Hourly
1608,7,WHOLEBUILDING-MULTI-UNIT RESIDENTIAL ZN,Zone Air Relative Humidity [%] !Daily [Value,Min,Hour,Minute,Max,Hour,Minute]
1647,1,WHOLEBUILDING-MUSEUM ZN,Zone Air Temperature [C] !Hourly
1648,7,WHOLEBUILDING-MUSEUM ZN,Zone Air Relative Humidity [%] !Daily [Value,Min,Hour,Minute,Max,Hour,Minute]
1687,1,WHOLEBUILDING-OFFICE ZN,Zone Air Temperature [C] !Hourly
1688,7,WHOLEBUILDING-OFFICE ZN,Zone Air Relative Humidity [%] !Daily [Value,Min,Hour,Minute,Max,Hour,Minute]
10,1,Electricity:Facility [J] !TimeStep
1838,1,DistrictCooling:Facility [J] !TimeStep
1801,1,DistrictHeating:Facility [J] !TimeStep
End of Data Dictionary
1,FORT MCMURRAY AP ANN CLG .4% CONDNS DB=>MWB,  56.65,-111.22,  -7.00, 369.10
2,1, 7,21, 0, 1, 0.00,10.00,SummerDesignDay
8,14.218136923962174
10,110085958.8187991
1801,0.0
1838,74915443.12590066
2,1, 7,21, 0, 1,10.00,20.00,SummerDesignDay
8,14.171982153293495
10,110085958.8187991
1801,0.0
1838,70393022.6646794
2,1, 7,21, 0, 1,20.00,30.00,SummerDesignDay
8,14.125744780286427
10,110085958.8187991
1801,0.0
1838,66988638.59274375
2,1, 7,21, 0, 1,30.00,40.00,SummerDesignDay
8,14.079436086331978
10,110085958.8187991
1801,0.0
1838,63534307.26744615
2,1, 7,21, 0, 1,40.00,50.00,SummerDesignDay
8,14.033050387896898
10,110085958.8187991
1801,0.0
1838,60095741.34015821
2,1, 7,21, 0, 1,50.00,60.00,SummerDesignDay
8,13.986581233564835
10,110085958.8187991
1801,0.0
1838,56687027.71593732
2,1, 7,21, 0, 1, 0.00,60.00,SummerDesignDay
927,22.448083374963237
967,24.28406953907525
1007,24.079918538021248
1047,24.000000000000019
1087,24.000000000000026
1127,24.000000000000019
1167,24.00000000000001
1207,24.000000000000026
1247,23.934019543892857
1287,24.00000000000001
1327,21.966921830774
1367,24.000000000000026
1407,24.000000000000005
1447,23.993659514333826
1487,23.631414977991118
1527,24.000000000000005
1567,24.632273383586953
1607,24.00000000000003
1647,24.554587782868528
1687,25.339569460294088
2,1, 7,21, 0, 2, 0.00,10.00,SummerDesignDay
8,13.95555882260429
10,75953742.88108598
1801,0.0
1838,27132988.026055457
2,1, 7,21, 0, 2,10.00,20.00,SummerDesignDay
8,13.924507755336454
10,75953742.88108598
1801,0.0
1838,25694024.326381245
2,1, 7,21, 0, 2,20.00,30.00,SummerDesignDay
8,13.893416042989206
10,75953742.88108598
1801,0.0
1838,24560280.90223309
2,1, 7,21, 0, 2,30.00,40.00,SummerDesignDay
8,13.862289589689029
10,75953742.88108598
1801,0.0
1838,23439337.308234939
2,1, 7,21, 0, 2,40.00,50.00,SummerDesignDay
8,13.831134407608739
10,75953742.88108598
1801,0.0
1838,22340178.975996347
2,1, 7,21, 0, 2,50.00,60.00,SummerDesignDay
8,13.799938415548118
10,75953742.88108598
1801,0.0
1838,21224027.09735108
2,1, 7,21, 0, 2, 0.00,60.00,SummerDesignDay
927,22.04104206360319
967,24.031451799892083
1007,23.690770179271096
1047,24.220857030391703
1087,24.309460120217968
1127,23.920774993727254
1167,24.0
1207,23.366075902604654
1247,23.548739653209343
1287,23.556742572293925
1327,21.616084762984227
1367,24.000000000000026
1407,24.000000000000005
1447,23.788899335061747
1487,23.37867150157453
1527,24.00000000000001
1567,24.430078196713028
1607,24.00000000000001
1647,24.40841794793526
1687,25.17227384771149
2,1, 7,21, 0, 3, 0.00,10.00,SummerDesignDay
8,13.776521671948676
10,51068949.98087522
1801,0.0
1838,20273725.68614466
2,1, 7,21, 0, 3,10.00,20.00,SummerDesignDay
8,13.753085235778466
10,51068949.98087522
1801,0.0
1838,19314536.12623758
2,1, 7,21, 0, 3,20.00,30.00,SummerDesignDay
8,13.729636002354969
10,51068949.98087522
1801,0.0
1838,18347293.07728885
2,1, 7,21, 0, 3,30.00,40.00,SummerDesignDay
8,13.706147375533054
10,51068949.98087522
1801,0.0
1838,17377437.976104417
2,1, 7,21, 0, 3,40.00,50.00,SummerDesignDay
8,13.682651961920304
10,51068949.98087522
1801,0.0
1838,16408698.590184162
2,1, 7,21, 0, 3,50.00,60.00,SummerDesignDay
8,13.659136670643687
10,51068949.98087522
1801,0.0
1838,15444161.385327012
2,1, 7,21, 0, 3, 0.00,60.00,SummerDesignDay
927,21.70039655234208
967,23.80605644275281
1007,23.362013450256599
1047,23.719604886268887
1087,23.85655744702882
1127,23.36259921961921
1167,23.999999999999998
1207,22.321744495363789
1247,23.19681446756678
1287,22.82261189789789
1327,21.342863633305187
1367,24.000000000000005
1407,24.0
1447,23.61513968319213
1487,23.1793316366462
1527,24.0
1567,24.255073685625708
1607,24.000000000000005
1647,24.276017353383727
1687,25.027193724625943
2,1, 7,21, 0, 4, 0.00,10.00,SummerDesignDay
8,13.63560137410855
10,47086483.124300878
1801,0.0
1838,13648581.407284014
2,1, 7,21, 0, 4,10.00,20.00,SummerDesignDay
8,13.612040802606578
10,47086483.124300878
1801,0.0
1838,13199854.970624257
2,1, 7,21, 0, 4,20.00,30.00,SummerDesignDay
8,13.58846620506876
10,47086483.124300878
1801,0.0
1838,12811141.259677209
2,1, 7,21, 0, 4,30.00,40.00,SummerDesignDay
8,13.56487178447336
10,47086483.124300878
1801,0.0
1838,12426489.777856313
2,1, 7,21, 0, 4,40.00,50.00,SummerDesignDay
8,13.541257354069103
10,47086483.124300878
1801,0.0
1838,12047283.094378522
2,1, 7,21, 0, 4,50.00,60.00,SummerDesignDay
8,13.517617463812285
10,47086483.124300878
1801,0.0
1838,11671875.016671565
2,1, 7,21, 0, 4, 0.00,60.00,SummerDesignDay
927,21.395046629593954
967,23.58684050712593
1007,23.07110794190956
1047,23.376088279904115
1087,23.50463123137841
1127,23.021601740093215
1167,24.00000000000001
1207,21.710607150011187
1247,22.798014137361866
1287,22.463651904702954
1327,21.101468852340998
1367,23.928872863933873
1407,24.000000000000005
1447,23.451725325846227
1487,23.003354407535956
1527,23.834172230295719
1567,24.092599067269906
1607,24.00000000000001
1647,24.131630030132418
1687,24.884708591170236
2,1, 7,21, 0, 5, 0.00,10.00,SummerDesignDay
8,13.50185415824011
10,47086483.124300878
1801,0.0
1838,11341398.39933329
2,1, 7,21, 0, 5,10.00,20.00,SummerDesignDay
8,13.486076034032447
10,47086483.124300878
1801,0.0
1838,11048240.723093082
2,1, 7,21, 0, 5,20.00,30.00,SummerDesignDay
8,13.470289340350983
10,47086483.124300878
1801,0.0
1838,10747700.716892489
2,1, 7,21, 0, 5,30.00,40.00,SummerDesignDay
8,13.454493322631063
10,47086483.124300878
1801,0.0
1838,10453602.642909004
2,1, 7,21, 0, 5,40.00,50.00,SummerDesignDay
8,13.438688835118548
10,47086483.124300878
1801,0.0
1838,10167728.28576862
2,1, 7,21, 0, 5,50.00,60.00,SummerDesignDay
8,13.422888173889437
10,47086483.124300878
1801,0.0
1838,9891332.031609949
2,1, 7,21, 0, 5, 0.00,60.00,SummerDesignDay
927,21.1704167233583
967,23.380597653917083
1007,22.871616178679078
1047,23.151722934453276
1087,23.356523461325254
1127,22.850872738886755
1167,24.000000000000005
1207,21.62269290179904
1247,22.65423628370692
1287,22.258740378478355
1327,20.885384811339404
1367,23.856372692808625
1407,24.000000000000005
1447,23.293212441263845
1487,22.840460862635653
1527,23.62401104617969
1567,23.945860930281986
1607,24.000000000000005
1647,24.04663183090673
1687,24.747679238022909
2,1, 7,21, 0, 6, 0.00,10.00,SummerDesignDay
8,13.438688835118548
10,47086483.124300878
1801,0.0
1838,9802709.63187923
2,1, 7,21, 0, 6,10.00,20.00,SummerDesignDay
8,13.454493322631063
10,47086483.124300878
1801,0.0
1838,11488599.914290194
2,1, 7,21, 0, 6,20.00,30.00,SummerDesignDay
8,13.470289340350983
10,47086483.124300878
1801,0.0
1838,11859581.754234413
2,1, 7,21, 0, 6,30.00,40.00,SummerDesignDay
8,13.486076034032447
10,47086483.124300878
1801,0.0
1838,12708318.581639434
2,1, 7,21, 0, 6,40.00,50.00,SummerDesignDay
8,13.50185415824011
10,47086483.124300878
1801,0.0
1838,13508703.808507245
2,1, 7,21, 0, 6,50.00,60.00,SummerDesignDay
8,13.517617463812285
10,47086483.124300878
1801,0.0
1838,14267304.901778046
2,1, 7,21, 0, 6, 0.00,60.00,SummerDesignDay
927,21.23380023309871
967,23.236629918409535
1007,22.982298049698274
1047,23.031158096123947
1087,23.648938483752663
1127,22.82244501385935
1167,24.00000000000001
1207,22.5743958983406
1247,22.993759365168036
1287,22.14466074823982
1327,20.785633311204806
1367,23.997346722403763
1407,24.0
1447,23.186992998359189
1487,22.745848585515636
1527,23.735004781141073
1567,23.86432150730983
1607,24.000000000000005
1647,24.063124912232494
1687,24.663792439256885
2,1, 7,21, 0, 7, 0.00,10.00,SummerDesignDay
8,13.572736920571789
10,54016425.44965428
1801,0.0
1838,31064807.685580389
2,1, 7,21, 0, 7,10.00,20.00,SummerDesignDay
8,13.627748229152554
10,54016425.44965428
1801,0.0
1838,21376215.2888791
2,1, 7,21, 0, 7,20.00,30.00,SummerDesignDay
8,13.682651961920304
10,54016425.44965428
1801,0.0
1838,24700239.814145455
2,1, 7,21, 0, 7,30.00,40.00,SummerDesignDay
8,13.737448093244995
10,54016425.44965428
1801,0.0
1838,32752871.559921303
2,1, 7,21, 0, 7,40.00,50.00,SummerDesignDay
8,13.792137011831216
10,54016425.44965428
1801,0.0
1838,32955935.909284396
2,1, 7,21, 0, 7,50.00,60.00,SummerDesignDay
8,13.846719282840333
10,54016425.44965428
1801,0.0
1838,34936300.15542662
2,1, 7,21, 0, 7, 0.00,60.00,SummerDesignDay
927,21.663436137879967
967,23.21976809524153
1007,23.41348976660265
1047,23.08466065585415
1087,24.12533930726831
1127,22.833116822120073
1167,24.000000000000005
1207,23.85932564836428
1247,23.42633582522643
1287,22.198210095951479
1327,20.917949160406317
1367,23.9999999980031
1407,23.999999999999998
1447,23.187824944161446
1487,22.79639917544794
1527,23.98942585884822
1567,23.882840919299324
1607,24.00000000000001
1647,24.007516223675798
1687,23.89626771790111
2,1, 7,21, 0, 8, 0.00,10.00,SummerDesignDay
8,13.978831900527043
10,87899268.45605642
1801,19767284.673182407
1838,51443655.34903837
2,1, 7,21, 0, 8,10.00,20.00,SummerDesignDay
8,14.110321014287419
10,87899268.45605642
1801,2084860.4126403
1838,62642953.51014595
2,1, 7,21, 0, 8,20.00,30.00,SummerDesignDay
8,14.241191509616986
10,87899268.45605642
1801,2209343.465404632
1838,73991837.90271533
2,1, 7,21, 0, 8,30.00,40.00,SummerDesignDay
8,14.371447531304272
10,87899268.45605642
1801,0.0
1838,82696140.07212797
2,1, 7,21, 0, 8,40.00,50.00,SummerDesignDay
8,14.501093766564925
10,87899268.45605642
1801,0.0
1838,90673506.39888776
2,1, 7,21, 0, 8,50.00,60.00,SummerDesignDay
8,14.630134792273804
10,87899268.45605642
1801,0.0
1838,98228071.27825107
2,1, 7,21, 0, 8, 0.00,60.00,SummerDesignDay
927,22.694213654971475
967,23.391170664769974
1007,23.98592876563342
1047,23.404452237984648
1087,24.784129801051156
1127,23.129377814582797
1167,24.000000000000005
1207,25.49976234253441
1247,23.969513407569737
1287,22.505596909718393
1327,22.081138074772367
1367,24.0
1407,24.000000000000005
1447,23.350922345521544
1487,23.393028605481278
1527,23.999999999999728
1567,23.98236344665912
1607,24.000000000000019
1647,24.000006008529117
1687,23.99999999733079
2,1, 7,21, 0, 9, 0.00,10.00,SummerDesignDay
8,14.773641492809972
10,174789795.3067521
1801,0.0
1838,219730665.75508154
2,1, 7,21, 0, 9,10.00,20.00,SummerDesignDay
8,14.91640948124148
10,174789795.3067521
1801,0.0
1838,195951541.96467639
2,1, 7,21, 0, 9,20.00,30.00,SummerDesignDay
8,15.05843890714102
10,174789795.3067521
1801,0.0
1838,236389953.50173233
2,1, 7,21, 0, 9,30.00,40.00,SummerDesignDay
8,15.199735893563798
10,174789795.3067521
1801,0.0
1838,247220894.86107613
2,1, 7,21, 0, 9,40.00,50.00,SummerDesignDay
8,15.340306256439395
10,174789795.3067521
1801,0.0
1838,261877329.42698307
2,1, 7,21, 0, 9,50.00,60.00,SummerDesignDay
8,15.48015101768072
10,174789795.3067521
1801,0.0
1838,287309510.73353525
2,1, 7,21, 0, 9, 0.00,60.00,SummerDesignDay
927,23.95220506318833
967,23.94884782190586
1007,23.999999999999998
1047,23.9142846467593
1087,23.969007037310616
1127,23.735956322405973
1167,24.00000000000001
1207,23.967605050809099
1247,23.999999999999465
1287,23.11060771609604
1327,23.420280743866475
1367,24.000000000000005
1407,24.0
1447,23.927472275036
1487,23.99475299956987
1527,24.000000000000019
1567,23.999999999999873
1607,24.00000000000001
1647,23.999999999999998
1687,24.000000000000015
2,1, 7,21, 0,10, 0.00,10.00,SummerDesignDay
8,15.60467292907716
10,228215600.67867524
1801,0.0
1838,336272993.72616419
2,1, 7,21, 0,10,10.00,20.00,SummerDesignDay
8,15.72862731650033
10,228215600.67867524
1801,0.0
1838,357184606.1022157
2,1, 7,21, 0,10,20.00,30.00,SummerDesignDay
8,15.852017409284228
10,228215600.67867524
1801,0.0
1838,379302700.88530078
2,1, 7,21, 0,10,30.00,40.00,SummerDesignDay
8,15.974848118364367
10,228215600.67867524
1801,0.0
1838,393980912.6015894
2,1, 7,21, 0,10,40.00,50.00,SummerDesignDay
8,16.097123145563505
10,228215600.67867524
1801,0.0
1838,411212147.08638319
2,1, 7,21, 0,10,50.00,60.00,SummerDesignDay
8,16.218846351168599
10,228215600.67867524
1801,0.0
1838,427075281.6649091
2,1, 7,21, 0,10, 0.00,60.00,SummerDesignDay
927,23.99999999983474
967,23.999999999974919
1007,24.000000000000015
1047,23.999999991381399
1087,23.999999999978603
1127,23.999951101694064
1167,24.0
1207,23.99999999954976
1247,24.000000000000047
1287,23.948143869730925
1327,23.999882932631978
1367,23.999999999999987
1407,24.000000000000005
1447,23.999999999961529
1487,23.999999999998506
1527,23.999999999999987
1567,24.00000000000001
1607,24.000000000000005
1647,24.00000000000001
1687,24.000000000000033
2,1, 7,21, 0,11, 0.00,10.00,SummerDesignDay
8,16.325793027093189
10,244797962.67350347
1801,0.0
1838,461144914.8765187
2,1, 7,21, 0,11,10.00,20.00,SummerDesignDay
8,16.432322158488288
10,244797962.67350347
1801,0.0
1838,475972288.96993407
2,1, 7,21, 0,11,20.00,30.00,SummerDesignDay
8,16.538424180249178
10,244797962.67350347
1801,0.0
1838,489676131.96478787
2,1, 7,21, 0,11,30.00,40.00,SummerDesignDay
8,16.644108396469087
10,244797962.67350347
1801,0.0
1838,503144856.18845066
2,1, 7,21, 0,11,40.00,50.00,SummerDesignDay
8,16.749376736593655
10,244797962.67350347
1801,0.0
1838,516401504.12002196
2,1, 7,21, 0,11,50.00,60.00,SummerDesignDay
8,16.854232613237156
10,244797962.67350347
1801,0.0
1838,529517517.40408596
2,1, 7,21, 0,11, 0.00,60.00,SummerDesignDay
927,24.000000000000055
967,24.000000000000019
1007,24.0
1047,24.000000000000033
1087,24.000000000000026
1127,23.999999999984458
1167,24.0
1207,24.000000000000026
1247,24.00000000000003
1287,23.99999998049932
1327,23.999999998841717
1367,24.000000000000015
1407,24.000000000000015
1447,24.000000000000015
1487,24.00000000000004
1527,24.000000000000047
1567,24.00000000000003
1607,24.000000000000015
1647,24.0
1687,24.000000000000026
2,1, 7,21, 0,12, 0.00,10.00,SummerDesignDay
8,16.92390823520069
10,253257892.26703445
1801,0.0
1838,551584412.4940963
2,1, 7,21, 0,12,10.00,20.00,SummerDesignDay
8,16.99340178950456
10,253257892.26703445
1801,0.0
1838,561524657.3472709
2,1, 7,21, 0,12,20.00,30.00,SummerDesignDay
8,17.06272006743463
10,253257892.26703445
1801,0.0
1838,571112857.923915
2,1, 7,21, 0,12,30.00,40.00,SummerDesignDay
8,17.131853229172639
10,253257892.26703445
1801,0.0
1838,580648390.0476627
2,1, 7,21, 0,12,40.00,50.00,SummerDesignDay
8,17.200807172194087
10,253257892.26703445
1801,0.0
1838,590053507.2504227
2,1, 7,21, 0,12,50.00,60.00,SummerDesignDay
8,17.269582116758607
10,253257892.26703445
1801,0.0
1838,599255247.8026857
2,1, 7,21, 0,12, 0.00,60.00,SummerDesignDay
927,24.000000000000044
967,24.00000000000001
1007,23.999999999999959
1047,24.00000000000003
1087,24.0
1127,24.000000000000026
1167,24.0
1207,24.000000000000044
1247,24.0
1287,23.999999999999998
1327,24.00000000000001
1367,24.000000000000015
1407,24.0
1447,24.000000000000026
1487,24.00000000000001
1527,23.999999999999987
1567,24.00000000000001
1607,24.00000000000001
1647,24.00000000000001
1687,24.000000000000058
2,1, 7,21, 0,13, 0.00,10.00,SummerDesignDay
8,17.32447360221357
10,249275425.41046015
1801,0.0
1838,618009488.5845335
2,1, 7,21, 0,13,10.00,20.00,SummerDesignDay
8,17.379251291230806
10,249275425.41046015
1801,0.0
1838,625638463.1171675
2,1, 7,21, 0,13,20.00,30.00,SummerDesignDay
8,17.433921312061729
10,249275425.41046015
1801,0.0
1838,633094759.1976713
2,1, 7,21, 0,13,30.00,40.00,SummerDesignDay
8,17.488473222557489
10,249275425.41046015
1801,0.0
1838,640445336.1792331
2,1, 7,21, 0,13,40.00,50.00,SummerDesignDay
8,17.542913447755134
10,249275425.41046015
1801,0.0
1838,647528907.178291
2,1, 7,21, 0,13,50.00,60.00,SummerDesignDay
8,17.59724609886134
10,249275425.41046015
1801,0.0
1838,654258465.2134343
2,1, 7,21, 0,13, 0.00,60.00,SummerDesignDay
927,24.000000000000033
967,24.00000000000004
1007,24.000000000000044
1047,24.000000000000076
1087,23.999999999999987
1127,24.000000000000026
1167,24.0
1207,24.000000000000026
1247,24.00000000000001
1287,23.999999999999969
1327,24.000000000000015
1367,24.000000000000044
1407,24.000000000000015
1447,24.000000000000019
1487,24.000000000000019
1527,23.99999999999997
1567,24.00000000000001
1607,24.000000000000019
1647,24.00000000000003
1687,24.0
2,1, 7,21, 0,14, 0.00,10.00,SummerDesignDay
8,17.6311450462694
10,249275425.41046015
1801,0.0
1838,655496924.3048424
2,1, 7,21, 0,14,10.00,20.00,SummerDesignDay
8,17.665000449016245
10,249275425.41046015
1801,0.0
1838,659683831.6302247
2,1, 7,21, 0,14,20.00,30.00,SummerDesignDay
8,17.698812743128934
10,249275425.41046015
1801,0.0
1838,663828809.8397285
2,1, 7,21, 0,14,30.00,40.00,SummerDesignDay
8,17.732582050940107
10,249275425.41046015
1801,0.0
1838,667969780.5670966
2,1, 7,21, 0,14,40.00,50.00,SummerDesignDay
8,17.766307345121004
10,249275425.41046015
1801,0.0
1838,672135496.322357
2,1, 7,21, 0,14,50.00,60.00,SummerDesignDay
8,17.79999023167558
10,249275425.41046015
1801,0.0
1838,676311748.4993018
2,1, 7,21, 0,14, 0.00,60.00,SummerDesignDay
927,24.00000000000004
967,24.000000000000019
1007,24.000000000000047
1047,24.000000000000005
1087,24.000000000000044
1127,24.000000000000055
1167,24.0
1207,23.999999999999984
1247,24.000000000000047
1287,24.00000000000001
1327,24.000000000000026
1367,24.00000000000003
1407,24.000000000000015
1447,24.000000000000026
1487,24.000000000000044
1527,24.00000000000006
1567,24.000000000000019
1607,24.000000000000005
1647,24.0
1687,24.0
2,1, 7,21, 0,15, 0.00,10.00,SummerDesignDay
8,17.79999023167558
10,249275425.41046015
1801,0.0
1838,670777078.5457425
2,1, 7,21, 0,15,10.00,20.00,SummerDesignDay
8,17.79999023167558
10,249275425.41046015
1801,0.0
1838,671653398.9996411
2,1, 7,21, 0,15,20.00,30.00,SummerDesignDay
8,17.79999023167558
10,249275425.41046015
1801,0.0
1838,672586181.9257078
2,1, 7,21, 0,15,30.00,40.00,SummerDesignDay
8,17.79999023167558
10,249275425.41046015
1801,0.0
1838,673337835.7475968
2,1, 7,21, 0,15,40.00,50.00,SummerDesignDay
8,17.79999023167558
10,249275425.41046015
1801,0.0
1838,673829657.8443581
2,1, 7,21, 0,15,50.00,60.00,SummerDesignDay
8,17.79999023167558
10,249275425.41046015
1801,0.0
1838,673997576.4317373
2,1, 7,21, 0,15, 0.00,60.00,SummerDesignDay
927,24.000000000000019
967,24.000000000000026
1007,24.000000000000058
1047,24.000000000000044
1087,24.000000000000015
1127,24.000000000000019
1167,24.000000000000005
1207,24.000000000000019
1247,24.000000000000047
1287,24.000000000000015
1327,24.000000000000019
1367,24.000000000000015
1407,24.000000000000005
1447,24.0
1487,24.000000000000026
1527,24.000000000000044
1567,24.0
1607,23.999999999999987
1647,24.000000000000005
1687,24.000000000000015
2,1, 7,21, 0,16, 0.00,10.00,SummerDesignDay
8,17.759562446305357
10,249275425.41046015
1801,0.0
1838,662169779.0009219
2,1, 7,21, 0,16,10.00,20.00,SummerDesignDay
8,17.71907809634183
10,249275425.41046015
1801,0.0
1838,657730754.805514
2,1, 7,21, 0,16,20.00,30.00,SummerDesignDay
8,17.67853788661001
10,249275425.41046015
1801,0.0
1838,652901856.7309394
2,1, 7,21, 0,16,30.00,40.00,SummerDesignDay
8,17.63791796367351
10,249275425.41046015
1801,0.0
1838,647696416.085887
2,1, 7,21, 0,16,40.00,50.00,SummerDesignDay
8,17.59724609886134
10,249275425.41046015
1801,0.0
1838,642204128.0210471
2,1, 7,21, 0,16,50.00,60.00,SummerDesignDay
8,17.55650676726033
10,249275425.41046015
1801,0.0
1838,636452104.6743361
2,1, 7,21, 0,16, 0.00,60.00,SummerDesignDay
927,24.000000000000033
967,24.000000000000047
1007,24.000000000000055
1047,24.000000000000055
1087,24.0
1127,24.00000000000001
1167,24.000000000000005
1207,24.0
1247,24.000000000000015
1287,24.000000000000019
1327,24.000000000000019
1367,24.000000000000033
1407,24.000000000000005
1447,24.000000000000019
1487,23.999999999999984
1527,24.00000000000001
1567,24.00000000000003
1607,24.00000000000001
1647,24.00000000000004
1687,24.00000000000003
2,1, 7,21, 0,17, 0.00,10.00,SummerDesignDay
8,17.50209486331892
10,250119168.38821958
1801,0.0
1838,633040389.5417607
2,1, 7,21, 0,17,10.00,20.00,SummerDesignDay
8,17.447570789624618
10,250119168.38821958
1801,0.0
1838,625837694.5802339
2,1, 7,21, 0,17,20.00,30.00,SummerDesignDay
8,17.392929544208135
10,250119168.38821958
1801,0.0
1838,618463887.1529504
2,1, 7,21, 0,17,30.00,40.00,SummerDesignDay
8,17.33818013976614
10,250119168.38821958
1801,0.0
1838,610923904.5305476
2,1, 7,21, 0,17,40.00,50.00,SummerDesignDay
8,17.283317298559309
10,250119168.38821958
1801,0.0
1838,603191981.6561413
2,1, 7,21, 0,17,50.00,60.00,SummerDesignDay
8,17.22833552437677
10,250119168.38821958
1801,0.0
1838,595260057.5101284
2,1, 7,21, 0,17, 0.00,60.00,SummerDesignDay
927,24.00000000000004
967,24.000000000000015
1007,23.99999999999992
1047,23.999999999999987
1087,24.000000000000026
1127,24.00000000000003
1167,24.0
1207,23.999999999999987
1247,24.000000000000047
1287,24.000000000000019
1327,24.00000000000001
1367,24.000000000000015
1407,24.0
1447,24.000000000000019
1487,24.00000000000004
1527,24.0
1567,24.000000000000019
1607,24.000000000000026
1647,24.00000000000001
1687,24.00000000000003
2,1, 7,21, 0,18, 0.00,10.00,SummerDesignDay
8,17.159453019160176
10,242476731.99364624
1801,0.0
1838,581632480.3181003
2,1, 7,21, 0,18,10.00,20.00,SummerDesignDay
8,17.090391773337136
10,242476731.99364624
1801,0.0
1838,571583025.5093073
2,1, 7,21, 0,18,20.00,30.00,SummerDesignDay
8,17.021151077964786
10,242476731.99364624
1801,0.0
1838,561466256.9825869
2,1, 7,21, 0,18,30.00,40.00,SummerDesignDay
8,16.951729380464653
10,242476731.99364624
1801,0.0
1838,551382110.8541314
2,1, 7,21, 0,18,40.00,50.00,SummerDesignDay
8,16.882126503829249
10,242476731.99364624
1801,0.0
1838,541378338.4825742
2,1, 7,21, 0,18,50.00,60.00,SummerDesignDay
8,16.812341807494034
10,242476731.99364624
1801,0.0
1838,531421869.1730458
2,1, 7,21, 0,18, 0.00,60.00,SummerDesignDay
927,24.000000000000015
967,24.0
1007,23.999999999999998
1047,24.00000000000003
1087,24.000000000000015
1127,24.000000000000019
1167,24.000000000000005
1207,23.999999999999987
1247,24.000000000000019
1287,24.000000000000026
1327,24.00000000000001
1367,24.0
1407,24.00000000000001
1447,24.000000000000033
1487,24.00000000000001
1527,24.000000000000019
1567,24.0
1607,24.00000000000001
1647,24.00000000000001
1687,24.000000000000026
2,1, 7,21, 0,19, 0.00,10.00,SummerDesignDay
8,16.707321072823203
10,208074518.31110684
1801,0.0
1838,492566543.2503502
2,1, 7,21, 0,19,10.00,20.00,SummerDesignDay
8,16.601881826644556
10,208074518.31110684
1801,0.0
1838,476944899.3984513
2,1, 7,21, 0,19,20.00,30.00,SummerDesignDay
8,16.496030555252849
10,208074518.31110684
1801,0.0
1838,462883583.45877996
2,1, 7,21, 0,19,30.00,40.00,SummerDesignDay
8,16.389760181474104
10,208074518.31110684
1801,0.0
1838,449035184.0948536
2,1, 7,21, 0,19,40.00,50.00,SummerDesignDay
8,16.283067654262039
10,208074518.31110684
1801,0.0
1838,435490794.8787329
2,1, 7,21, 0,19,50.00,60.00,SummerDesignDay
8,16.17595057957811
10,208074518.31110684
1801,0.0
1838,422172825.3755731
2,1, 7,21, 0,19, 0.00,60.00,SummerDesignDay
927,24.00000000000003
967,24.000000000000033
1007,23.999999999999944
1047,24.00000000000003
1087,24.0
1127,24.00000000000003
1167,24.000000000000005
1207,24.0
1247,24.000000000000005
1287,24.00000000000001
1327,24.000000000000005
1367,24.0
1407,24.000000000000015
1447,24.0
1487,24.0
1527,24.000000000000019
1567,23.999999999999987
1607,24.0
1647,24.000000000000019
1687,24.00000000000004
2,1, 7,21, 0,20, 0.00,10.00,SummerDesignDay
8,16.097123145563505
10,191270908.15852193
1801,0.0
1838,387002712.971699
2,1, 7,21, 0,20,10.00,20.00,SummerDesignDay
8,16.018070242471564
10,191270908.15852193
1801,0.0
1838,377743427.1654041
2,1, 7,21, 0,20,20.00,30.00,SummerDesignDay
8,15.938779752340516
10,191270908.15852193
1801,0.0
1838,368064133.1155318
2,1, 7,21, 0,20,30.00,40.00,SummerDesignDay
8,15.85926152575189
10,191270908.15852193
1801,0.0
1838,358166280.62280228
2,1, 7,21, 0,20,40.00,50.00,SummerDesignDay
8,15.779503718563929
10,191270908.15852193
1801,0.0
1838,348045472.6233234
2,1, 7,21, 0,20,50.00,60.00,SummerDesignDay
8,15.699515709672767
10,191270908.15852193
1801,0.0
1838,337548858.38626727
2,1, 7,21, 0,20, 0.00,60.00,SummerDesignDay
927,24.951717803917146
967,23.999999999999998
1007,23.999999999999987
1047,24.000000000000015
1087,24.000000000000026
1127,24.000000000000026
1167,24.000000000000019
1207,24.000000000000026
1247,24.00000000000001
1287,24.0
1327,24.00000000000001
1367,23.99999999999999
1407,24.000000000000015
1447,24.0
1487,24.000000000000005
1527,24.000000000000005
1567,24.00000000000001
1607,24.000000000000019
1647,24.00000000000001
1687,24.000000000000015
2,1, 7,21, 0,21, 0.00,10.00,SummerDesignDay
8,15.63389147320404
10,190475914.77550126
1801,0.0
1838,329758014.0019152
2,1, 7,21, 0,21,10.00,20.00,SummerDesignDay
8,15.56810827419793
10,190475914.77550126
1801,0.0
1838,319702611.19697746
2,1, 7,21, 0,21,20.00,30.00,SummerDesignDay
8,15.502170882753524
10,190475914.77550126
1801,0.0
1838,309107916.6822562
2,1, 7,21, 0,21,30.00,40.00,SummerDesignDay
8,15.436068032613852
10,190475914.77550126
1801,0.0
1838,298675372.98952487
2,1, 7,21, 0,21,40.00,50.00,SummerDesignDay
8,15.369804371206009
10,190475914.77550126
1801,0.0
1838,289687439.8070649
2,1, 7,21, 0,21,50.00,60.00,SummerDesignDay
8,15.303384603594449
10,190475914.77550126
1801,0.0
1838,280384294.5823395
2,1, 7,21, 0,21, 0.00,60.00,SummerDesignDay
927,24.663983200154957
967,24.000000000000019
1007,24.000000000000015
1047,23.999999999999976
1087,24.00000000000003
1127,24.00000000000003
1167,24.000000000000026
1207,24.000000000000044
1247,24.000000000000015
1287,24.00000000000003
1327,23.976392665995815
1367,24.000000000000026
1407,23.99999999999999
1447,24.000000000000026
1487,24.0