Program Version,EnergyPlus, Version 8.9.0-eba93e8e1b, YMD=2019.04.04 17:58
1,5,Environment Title[],Latitude[deg],Longitude[deg],Time Zone[],Elevation[m]
2,8,Day of Simulation[],Month[],Day of Month[],DST Indicator[1=yes 0=no],Hour[],StartMinute[],EndMinute[],DayType
3,5,Cumulative Day of Simulation[],Month[],Day of Month[],DST Indicator[1=yes 0=no],DayType  ! When Daily Report Variables Requested
4,2,Cumulative Days of Simulation[],Month[]  ! When Monthly Report Variables Requested
5,1,Cumulative Days of Simulation[] ! When Run Period Report Variables Requested
6,1,Calendar Year of Simulation[] ! When Annual Report Variables Requested
7,9,Environment,Site Outdoor Air Drybulb Temperature [C] !Monthly [Value,Min,Day,Hour,Minute,Max,Day,Hour,Minute]
8,1,Environment,Site Outdoor Air Wetbulb Temperature [C] !TimeStep
344,1,WHOLEBUILDING-PARKING GARAGE ZN,Zone Air Temperature [C] !Hourly
345,7,WHOLEBUILDING-PARKING GARAGE ZN,Zone Air Relative Humidity [%] !Daily [Value,Min,Hour,Minute,Max,Hour,Minute]
384,1,WHOLEBUILDING-PENITENTIARY ZN,Zone Air Temperature [C] !Hourly
385,7,WHOLEBUILDING-PENITENTIARY ZN,Zone Air Relative Humidity [%] !Daily [Value,Min,Hour,Minute,Max,Hour,Minute]
424,1,WHOLEBUILDING-PERFORMING ARTS THEATRE ZN,Zone Air Temperature [C] !Hourly
425,7,WHOLEBUILDING-PERFORMING ARTS THEATRE ZN,Zone Air Relative Humidity [%] !Daily [Value,Min,Hour,Minute,Max,Hour,Minute]
464,1,WHOLEBUILDING-POLICE STATION ZN,Zone Air Temperature [C] !Hourly
465,7,WHOLEBUILDING-POLICE STATION ZN,Zone Air Relative Humidity [%] !Daily [Value,Min,Hour,Minute,Max,Hour,Minute]
504,1,WHOLEBUILDING-POST OFFICE ZN,Zone Air Temperature [C] !Hourly
505,7,WHOLEBUILDING-POST OFFICE ZN,Zone Air Relative Humidity [%] !Daily [Value,Min,Hour,Minute,Max,Hour,Minute]
10,1,Electricity:Facility [J] !TimeStep
655,1,DistrictCooling:Facility [J] !TimeStep
618,1,DistrictHeating:Facility [J] !TimeStep
End of Data Dictionary
1,FORT MCMURRAY AP ANN CLG .4% CONDNS DB=>MWB,  56.65,-111.22,  -7.00, 369.10
2,1, 7,21, 0, 1, 0.00,10.00,SummerDesignDay
8,14.218136923962174
10,37844685.02665511
618,0.0
655,25030206.87600006
2,1, 7,21, 0, 1,10.00,20.00,SummerDesignDay
8,14.171982153293495
10,37844685.02665511
618,0.0
655,24846238.843921715
2,1, 7,21, 0, 1,20.00,30.00,SummerDesignDay
8,14.125744780286427
10,37844685.02665511
618,0.0
655,24663199.47766509
2,1, 7,21, 0, 1,30.00,40.00,SummerDesignDay
8,14.079436086331978
10,37844685.02665511
618,0.0
655,24481517.925191318
2,1, 7,21, 0, 1,40.00,50.00,SummerDesignDay
8,14.033050387896898
10,37844685.02665511
618,0.0
655,24301353.61612332
2,1, 7,21, 0, 1,50.00,60.00,SummerDesignDay
8,13.986581233564835
10,37844685.02665511
618,0.0
655,24122613.59262163
2,1, 7,21, 0, 1, 0.00,60.00,SummerDesignDay
344,23.365476468230509
384,24.00000000000001
424,21.930122418032857
464,24.0
504,22.159052487455779
2,1, 7,21, 0, 2, 0.00,10.00,SummerDesignDay
8,13.95555882260429
10,37844685.02665511
618,0.0
655,23988037.554686056
2,1, 7,21, 0, 2,10.00,20.00,SummerDesignDay
8,13.924507755336454
10,37844685.02665511
618,0.0
655,23855832.79409648
2,1, 7,21, 0, 2,20.00,30.00,SummerDesignDay
8,13.893416042989206
10,37844685.02665511
618,0.0
655,23724363.39867472
2,1, 7,21, 0, 2,30.00,40.00,SummerDesignDay
8,13.862289589689029
10,37844685.02665511
618,0.0
655,23594206.776704514
2,1, 7,21, 0, 2,40.00,50.00,SummerDesignDay
8,13.831134407608739
10,37844685.02665511
618,0.0
655,23465730.94033964
2,1, 7,21, 0, 2,50.00,60.00,SummerDesignDay
8,13.799938415548118
10,37844685.02665511
618,0.0
655,23338898.480176048
2,1, 7,21, 0, 2, 0.00,60.00,SummerDesignDay
344,23.12650333325011
384,24.0
424,21.610707283847068
464,24.00000000000003
504,21.788958246620923
2,1, 7,21, 0, 3, 0.00,10.00,SummerDesignDay
8,13.776521671948676
10,37844685.02665511
618,0.0
655,23235088.51249381
2,1, 7,21, 0, 3,10.00,20.00,SummerDesignDay
8,13.753085235778466
10,37844685.02665511
618,0.0
655,23132796.454651163
2,1, 7,21, 0, 3,20.00,30.00,SummerDesignDay
8,13.729636002354969
10,37844685.02665511
618,0.0
655,23032001.249041756
2,1, 7,21, 0, 3,30.00,40.00,SummerDesignDay
8,13.706147375533054
10,37844685.02665511
618,0.0
655,22932702.03355124
2,1, 7,21, 0, 3,40.00,50.00,SummerDesignDay
8,13.682651961920304
10,37844685.02665511
618,0.0
655,22836065.211278745
2,1, 7,21, 0, 3,50.00,60.00,SummerDesignDay
8,13.659136670643687
10,37844685.02665511
618,0.0
655,22740217.863465355
2,1, 7,21, 0, 3, 0.00,60.00,SummerDesignDay
344,22.93253400856629
384,24.00000000000001
424,21.368929762693158
464,24.00000000000001
504,21.518789168582776
2,1, 7,21, 0, 4, 0.00,10.00,SummerDesignDay
8,13.63560137410855
10,37844685.02665511
618,0.0
655,22645452.922072714
2,1, 7,21, 0, 4,10.00,20.00,SummerDesignDay
8,13.612040802606578
10,37844685.02665511
618,0.0
655,22551919.690018394
2,1, 7,21, 0, 4,20.00,30.00,SummerDesignDay
8,13.58846620506876
10,37844685.02665511
618,0.0
655,22459513.405964398
2,1, 7,21, 0, 4,30.00,40.00,SummerDesignDay
8,13.56487178447336
10,37844685.02665511
618,0.0
655,22368107.880898049
2,1, 7,21, 0, 4,40.00,50.00,SummerDesignDay
8,13.541257354069103
10,37844685.02665511
618,0.0
655,22277595.857896344
2,1, 7,21, 0, 4,50.00,60.00,SummerDesignDay
8,13.517617463812285
10,37844685.02665511
618,0.0
655,22187864.140987178
2,1, 7,21, 0, 4, 0.00,60.00,SummerDesignDay
344,22.776402341332284
384,23.999999999999998
424,21.17925766271617
464,24.00000000000004
504,21.30970748117441
2,1, 7,21, 0, 5, 0.00,10.00,SummerDesignDay
8,13.50185415824011
10,37844685.02665511
618,0.0
655,22120274.37979362
2,1, 7,21, 0, 5,10.00,20.00,SummerDesignDay
8,13.486076034032447
10,37844685.02665511
618,0.0
655,22053318.291673557
2,1, 7,21, 0, 5,20.00,30.00,SummerDesignDay
8,13.470289340350983
10,37844685.02665511
618,0.0
655,21988258.353771137
2,1, 7,21, 0, 5,30.00,40.00,SummerDesignDay
8,13.454493322631063
10,37844685.02665511
618,0.0
655,21923321.33678922
2,1, 7,21, 0, 5,40.00,50.00,SummerDesignDay
8,13.438688835118548
10,37844685.02665511
618,0.0
655,21858869.13640458
2,1, 7,21, 0, 5,50.00,60.00,SummerDesignDay
8,13.422888173889437
10,37844685.02665511
618,0.0
655,21795249.887572837
2,1, 7,21, 0, 5, 0.00,60.00,SummerDesignDay
344,22.646311631976148
384,24.000000000000015
424,21.020886281324527
464,24.00000000000001
504,21.135588463515984
2,1, 7,21, 0, 6, 0.00,10.00,SummerDesignDay
8,13.438688835118548
10,37844685.02665511
618,0.0
655,21818014.42218332
2,1, 7,21, 0, 6,10.00,20.00,SummerDesignDay
8,13.454493322631063
10,37844685.02665511
618,0.0
655,21841593.70704999
2,1, 7,21, 0, 6,20.00,30.00,SummerDesignDay
8,13.470289340350983
10,37844685.02665511
618,0.0
655,21867694.115939615
2,1, 7,21, 0, 6,30.00,40.00,SummerDesignDay
8,13.486076034032447
10,37844685.02665511
618,0.0
655,21896569.21598521
2,1, 7,21, 0, 6,40.00,50.00,SummerDesignDay
8,13.50185415824011
10,37844685.02665511
618,0.0
655,21925899.693465875
2,1, 7,21, 0, 6,50.00,60.00,SummerDesignDay
8,13.517617463812285
10,37844685.02665511
618,0.0
655,21956399.71092861
2,1, 7,21, 0, 6, 0.00,60.00,SummerDesignDay
344,22.562859856223967
384,24.000000000000005
424,20.930490361923174
464,24.000000000000019
504,21.040782695425589
2,1, 7,21, 0, 7, 0.00,10.00,SummerDesignDay
8,13.572736920571789
10,37844685.02665511
618,0.0
655,22098001.28923203
2,1, 7,21, 0, 7,10.00,20.00,SummerDesignDay
8,13.627748229152554
10,37844685.02665511
618,0.0
655,22240665.82080955
2,1, 7,21, 0, 7,20.00,30.00,SummerDesignDay
8,13.682651961920304
10,37844685.02665511
618,0.0
655,22381537.515547344
2,1, 7,21, 0, 7,30.00,40.00,SummerDesignDay
8,13.737448093244995
10,37844685.02665511
618,0.0
655,22526933.85359127
2,1, 7,21, 0, 7,40.00,50.00,SummerDesignDay
8,13.792137011831216
10,37844685.02665511
618,0.0
655,22677488.879369089
2,1, 7,21, 0, 7,50.00,60.00,SummerDesignDay
8,13.846719282840333
10,37844685.02665511
618,0.0
655,22832307.138607559
2,1, 7,21, 0, 7, 0.00,60.00,SummerDesignDay
344,22.57442685353877
384,24.000000000000019
424,20.984622069885558
464,24.00000000000004
504,21.115429991531845
2,1, 7,21, 0, 8, 0.00,10.00,SummerDesignDay
8,13.978831900527043
10,41332156.001636128
618,11834061.558262483
655,23212209.757662484
2,1, 7,21, 0, 8,10.00,20.00,SummerDesignDay
8,14.110321014287419
10,41332156.001636128
618,0.0
655,23629140.422449493
2,1, 7,21, 0, 8,20.00,30.00,SummerDesignDay
8,14.241191509616986
10,41332156.001636128
618,0.0
655,24092519.44950004
2,1, 7,21, 0, 8,30.00,40.00,SummerDesignDay
8,14.371447531304272
10,41332156.001636128
618,0.0
655,24549740.615747446
2,1, 7,21, 0, 8,40.00,50.00,SummerDesignDay
8,14.501093766564925
10,41332156.001636128
618,0.0
655,24992859.406036229
2,1, 7,21, 0, 8,50.00,60.00,SummerDesignDay
8,14.630134792273804
10,41332156.001636128
618,0.0
655,25432803.4172956
2,1, 7,21, 0, 8, 0.00,60.00,SummerDesignDay
344,22.751628507135327
384,24.000000000000015
424,21.284345075421425
464,24.000000000000015
504,22.534670418700828
2,1, 7,21, 0, 9, 0.00,10.00,SummerDesignDay
8,14.773641492809972
10,58938259.47245635
618,5634481.006941703
655,25949286.095879839
2,1, 7,21, 0, 9,10.00,20.00,SummerDesignDay
8,14.91640948124148
10,58938259.47245635
618,0.0
655,34768649.08604398
2,1, 7,21, 0, 9,20.00,30.00,SummerDesignDay
8,15.05843890714102
10,58938259.47245635
618,0.0
655,38409933.61317991
2,1, 7,21, 0, 9,30.00,40.00,SummerDesignDay
8,15.199735893563798
10,58938259.47245635
618,0.0
655,38371768.14305414
2,1, 7,21, 0, 9,40.00,50.00,SummerDesignDay
8,15.340306256439395
10,58938259.47245635
618,0.0
655,41578330.45533481
2,1, 7,21, 0, 9,50.00,60.00,SummerDesignDay
8,15.48015101768072
10,58938259.47245635
618,0.0
655,47532186.72040984
2,1, 7,21, 0, 9, 0.00,60.00,SummerDesignDay
344,23.129482262559418
384,24.0
424,23.249800677667485
464,24.000000000000005
504,23.882251736448226
2,1, 7,21, 0,10, 0.00,10.00,SummerDesignDay
8,15.60467292907716
10,68039433.72695332
618,0.0
655,62641177.04584238
2,1, 7,21, 0,10,10.00,20.00,SummerDesignDay
8,15.72862731650033
10,68039433.72695332
618,0.0
655,60730776.51489416
2,1, 7,21, 0,10,20.00,30.00,SummerDesignDay
8,15.852017409284228
10,68039433.72695332
618,0.0
655,63203120.981680128
2,1, 7,21, 0,10,30.00,40.00,SummerDesignDay
8,15.974848118364367
10,68039433.72695332
618,0.0
655,64636001.72369049
2,1, 7,21, 0,10,40.00,50.00,SummerDesignDay
8,16.097123145563505
10,68039433.72695332
618,0.0
655,67582789.86513585
2,1, 7,21, 0,10,50.00,60.00,SummerDesignDay
8,16.218846351168599
10,68039433.72695332
618,0.0
655,70487678.58457518
2,1, 7,21, 0,10, 0.00,60.00,SummerDesignDay
344,23.814572078294089
384,24.000000000000005
424,23.99999750159648
464,24.00000000000001
504,23.999999999999785
2,1, 7,21, 0,11, 0.00,10.00,SummerDesignDay
8,16.325793027093189
10,68039433.72695332
618,0.0
655,73975975.13898993
2,1, 7,21, 0,11,10.00,20.00,SummerDesignDay
8,16.432322158488288
10,68039433.72695332
618,0.0
655,75861168.30536896
2,1, 7,21, 0,11,20.00,30.00,SummerDesignDay
8,16.538424180249178
10,68039433.72695332
618,0.0
655,77260571.61115003
2,1, 7,21, 0,11,30.00,40.00,SummerDesignDay
8,16.644108396469087
10,68039433.72695332
618,0.0
655,78628162.0634864
2,1, 7,21, 0,11,40.00,50.00,SummerDesignDay
8,16.749376736593655
10,68039433.72695332
618,0.0
655,79949222.05642408
2,1, 7,21, 0,11,50.00,60.00,SummerDesignDay
8,16.854232613237156
10,68039433.72695332
618,0.0
655,81217053.40609294
2,1, 7,21, 0,11, 0.00,60.00,SummerDesignDay
344,23.99999980973622
384,24.00000000000001
424,23.99999999999989
464,23.99999999999999
504,23.999999999999984
2,1, 7,21, 0,12, 0.00,10.00,SummerDesignDay
8,16.92390823520069
10,68039433.72695332
618,0.0
655,82083516.61499267
2,1, 7,21, 0,12,10.00,20.00,SummerDesignDay
8,16.99340178950456
10,68039433.72695332
618,0.0
655,82880501.51379727
2,1, 7,21, 0,12,20.00,30.00,SummerDesignDay
8,17.06272006743463
10,68039433.72695332
618,0.0
655,83643783.41612694
2,1, 7,21, 0,12,30.00,40.00,SummerDesignDay
8,17.131853229172639
10,68039433.72695332
618,0.0
655,84398209.12325901
2,1, 7,21, 0,12,40.00,50.00,SummerDesignDay
8,17.200807172194087
10,68039433.72695332
618,0.0
655,85142722.60824815
2,1, 7,21, 0,12,50.00,60.00,SummerDesignDay
8,17.269582116758607
10,68039433.72695332
618,0.0
655,85878374.08490324
2,1, 7,21, 0,12, 0.00,60.00,SummerDesignDay
344,24.000000000000005
384,24.000000000000015
424,24.00000000000003
464,24.00000000000001
504,24.000000000000019
2,1, 7,21, 0,13, 0.00,10.00,SummerDesignDay
8,17.32447360221357
10,68039433.72695332
618,0.0
655,87356643.82788706
2,1, 7,21, 0,13,10.00,20.00,SummerDesignDay
8,17.379251291230806
10,68039433.72695332
618,0.0
655,88033670.00831296
2,1, 7,21, 0,13,20.00,30.00,SummerDesignDay
8,17.433921312061729
10,68039433.72695332
618,0.0
655,88670853.0655034
2,1, 7,21, 0,13,30.00,40.00,SummerDesignDay
8,17.488473222557489
10,68039433.72695332
618,0.0
655,89311779.43446467
2,1, 7,21, 0,13,40.00,50.00,SummerDesignDay
8,17.542913447755134
10,68039433.72695332
618,0.0
655,89939654.37459477
2,1, 7,21, 0,13,50.00,60.00,SummerDesignDay
8,17.59724609886134
10,68039433.72695332
618,0.0
655,90553104.64811144
2,1, 7,21, 0,13, 0.00,60.00,SummerDesignDay
344,24.0
384,24.000000000000033
424,24.000000000000026
464,24.00000000000003
504,24.0
2,1, 7,21, 0,14, 0.00,10.00,SummerDesignDay
8,17.6311450462694
10,68039433.72695332
618,0.0
655,90945629.79311992
2,1, 7,21, 0,14,10.00,20.00,SummerDesignDay
8,17.665000449016245
10,68039433.72695332
618,0.0
655,91326447.38253911
2,1, 7,21, 0,14,20.00,30.00,SummerDesignDay
8,17.698812743128934
10,68039433.72695332
618,0.0
655,91700716.82417253
2,1, 7,21, 0,14,30.00,40.00,SummerDesignDay
8,17.732582050940107
10,68039433.72695332
618,0.0
655,92070969.22743687
2,1, 7,21, 0,14,40.00,50.00,SummerDesignDay
8,17.766307345121004
10,68039433.72695332
618,0.0
655,92437562.06441581
2,1, 7,21, 0,14,50.00,60.00,SummerDesignDay
8,17.79999023167558
10,68039433.72695332
618,0.0
655,92801047.13723102
2,1, 7,21, 0,14, 0.00,60.00,SummerDesignDay
344,24.0
384,24.00000000000003
424,24.000000000000069
464,24.000000000000033
504,24.00000000000003
2,1, 7,21, 0,15, 0.00,10.00,SummerDesignDay
8,17.79999023167558
10,68039433.72695332
618,0.0
655,94034716.90048734
2,1, 7,21, 0,15,10.00,20.00,SummerDesignDay
8,17.79999023167558
10,68039433.72695332
618,0.0
655,94132517.84239489
2,1, 7,21, 0,15,20.00,30.00,SummerDesignDay
8,17.79999023167558
10,68039433.72695332
618,0.0
655,94170152.64232189
2,1, 7,21, 0,15,30.00,40.00,SummerDesignDay
8,17.79999023167558
10,68039433.72695332
618,0.0
655,94214420.96811834
2,1, 7,21, 0,15,40.00,50.00,SummerDesignDay
8,17.79999023167558
10,68039433.72695332
618,0.0
655,94254024.24093254
2,1, 7,21, 0,15,50.00,60.00,SummerDesignDay
8,17.79999023167558
10,68039433.72695332
618,0.0
655,94284475.65532466
2,1, 7,21, 0,15, 0.00,60.00,SummerDesignDay
344,24.0
384,24.00000000000001
424,24.0
464,23.99999999999997
504,24.000000000000019
2,1, 7,21, 0,16, 0.00,10.00,SummerDesignDay
8,17.759562446305357
10,68039433.72695332
618,0.0
655,93891219.8288697
2,1, 7,21, 0,16,10.00,20.00,SummerDesignDay
8,17.71907809634183
10,68039433.72695332
618,0.0
655,93494510.1773971
2,1, 7,21, 0,16,20.00,30.00,SummerDesignDay
8,17.67853788661001
10,68039433.72695332
618,0.0
655,93094678.83486879
2,1, 7,21, 0,16,30.00,40.00,SummerDesignDay
8,17.63791796367351
10,68039433.72695332
618,0.0
655,92692099.4062894
2,1, 7,21, 0,16,40.00,50.00,SummerDesignDay
8,17.59724609886134
10,68039433.72695332
618,0.0
655,92287215.43935338
2,1, 7,21, 0,16,50.00,60.00,SummerDesignDay
8,17.55650676726033
10,68039433.72695332
618,0.0
655,91880251.56921837
2,1, 7,21, 0,16, 0.00,60.00,SummerDesignDay
344,24.0
384,24.000000000000015
424,24.00000000000001
464,24.00000000000001
504,24.000000000000019
2,1, 7,21, 0,17, 0.00,10.00,SummerDesignDay
8,17.50209486331892
10,68039433.72695332
618,0.0
655,92471404.62058163
2,1, 7,21, 0,17,10.00,20.00,SummerDesignDay
8,17.447570789624618
10,68039433.72695332
618,0.0
655,92015347.41730707
2,1, 7,21, 0,17,20.00,30.00,SummerDesignDay
8,17.392929544208135
10,68039433.72695332
618,0.0
655,91506506.03926577
2,1, 7,21, 0,17,30.00,40.00,SummerDesignDay
8,17.33818013976614
10,68039433.72695332
618,0.0
655,91001497.43283329
2,1, 7,21, 0,17,40.00,50.00,SummerDesignDay
8,17.283317298559309
10,68039433.72695332
618,0.0
655,90486566.27787909
2,1, 7,21, 0,17,50.00,60.00,SummerDesignDay
8,17.22833552437677
10,68039433.72695332
618,0.0
655,89962906.92901454
2,1, 7,21, 0,17, 0.00,60.00,SummerDesignDay
344,24.000000000000005
384,24.0
424,24.000000000000015
464,24.000000000000047
504,24.00000000000004
2,1, 7,21, 0,18, 0.00,10.00,SummerDesignDay
8,17.159453019160176
10,66981942.52806466
618,0.0
655,86660203.5920747
2,1, 7,21, 0,18,10.00,20.00,SummerDesignDay
8,17.090391773337136
10,66981942.52806466
618,0.0
655,85761722.90795869
2,1, 7,21, 0,18,20.00,30.00,SummerDesignDay
8,17.021151077964786
10,66981942.52806466
618,0.0
655,85035698.8711381
2,1, 7,21, 0,18,30.00,40.00,SummerDesignDay
8,16.951729380464653
10,66981942.52806466
618,0.0
655,84277198.67828833
2,1, 7,21, 0,18,40.00,50.00,SummerDesignDay
8,16.882126503829249
10,66981942.52806466
618,0.0
655,83524408.92636539
2,1, 7,21, 0,18,50.00,60.00,SummerDesignDay
8,16.812341807494034
10,66981942.52806466
618,0.0
655,82735632.41267988
2,1, 7,21, 0,18, 0.00,60.00,SummerDesignDay
344,24.0
384,23.99999999999999
424,24.000000000000019
464,24.000000000000015
504,24.000000000000019
2,1, 7,21, 0,19, 0.00,10.00,SummerDesignDay
8,16.707321072823203
10,60434497.02036115
618,0.0
655,72924664.8039668
2,1, 7,21, 0,19,10.00,20.00,SummerDesignDay
8,16.601881826644556
10,60434497.02036115
618,0.0
655,71200367.10750334
2,1, 7,21, 0,19,20.00,30.00,SummerDesignDay
8,16.496030555252849
10,60434497.02036115
618,0.0
655,69907012.35420202
2,1, 7,21, 0,19,30.00,40.00,SummerDesignDay
8,16.389760181474104
10,60434497.02036115
618,0.0
655,68584667.53192407
2,1, 7,21, 0,19,40.00,50.00,SummerDesignDay
8,16.283067654262039
10,60434497.02036115
618,0.0
655,67304576.12622319
2,1, 7,21, 0,19,50.00,60.00,SummerDesignDay
8,16.17595057957811
10,60434497.02036115
618,0.0
655,66062614.25067603
2,1, 7,21, 0,19, 0.00,60.00,SummerDesignDay
344,24.0
384,24.000000000000015
424,24.000000000000019
464,24.00000000000003
504,23.99999999999999
2,1, 7,21, 0,20, 0.00,10.00,SummerDesignDay
8,16.097123145563505
10,51232073.608678389
618,0.0
655,53848371.2191187
2,1, 7,21, 0,20,10.00,20.00,SummerDesignDay
8,16.018070242471564
10,51232073.608678389
618,0.0
655,51926317.450216878
2,1, 7,21, 0,20,20.00,30.00,SummerDesignDay
8,15.938779752340516
10,51232073.608678389
618,0.0
655,50811334.88678167
2,1, 7,21, 0,20,30.00,40.00,SummerDesignDay
8,15.85926152575189
10,51232073.608678389
618,0.0
655,49653621.17233828
2,1, 7,21, 0,20,40.00,50.00,SummerDesignDay
8,15.779503718563929
10,51232073.608678389
618,0.0
655,48550004.97767773
2,1, 7,21, 0,20,50.00,60.00,SummerDesignDay
8,15.699515709672767
10,51232073.608678389
618,0.0
655,47494595.16507263
2,1, 7,21, 0,20, 0.00,60.00,SummerDesignDay
344,24.000000000000005
384,24.00000000000001
424,24.00000000000003
464,24.0
504,24.000000000000005
2,1, 7,21, 0,21, 0.00,10.00,SummerDesignDay
8,15.63389147320404
10,49432088.58921615
618,0.0
655,45041591.8979135
2,1, 7,21, 0,21,10.00,20.00,SummerDesignDay
8,15.56810827419793
10,49432088.58921615
618,0.0
655,44045366.072824899
2,1, 7,21, 0,21,20.00,30.00,SummerDesignDay
8,15.502170882753524
10,49432088.58921615
618,0.0
655,43232852.172137539
2,1, 7,21, 0,21,30.00,40.00,SummerDesignDay
8,15.436068032613852
10,49432088.58921615
618,0.0
655,42404424.21240053
2,1, 7,21, 0,21,40.00,50.00,SummerDesignDay
8,15.369804371206009
10,49432088.58921615
618,0.0
655,41598186.37730098
2,1, 7,21, 0,21,50.00,60.00,SummerDesignDay
8,15.303384603594449
10,49432088.58921615
618,0.0
655,40800699.763022389
2,1, 7,21, 0,21, 0.00,60.00,SummerDesignDay
344,24.0
384,24.0
424,24.000000000000015
464,24.000000000000019
504,23.999999999999998
2,1, 7,21, 0,22, 0.00,10.00,SummerDesignDay
8,15.236797685071274
10,38373430.62609944
618,0.0
655,29813827.819605914
2,1, 7,21, 0,22,10.00,20.00,SummerDesignDay
8,15.170047891787942
10,38373430.62609944
618,0.0
655,29315038.61771775
2,1, 7,21, 0,22,20.00,30.00,SummerDesignDay
8,15.103134826860483
10,38373430.62609944
618,0.0
655,28792141.01769259
2,1, 7,21, 0,22,30.00,40.00,SummerDesignDay
8,15.036063385178485
10,38373430.62609944
618,0.0
655,28336055.47982202
2,1, 7,21, 0,22,40.00,50.00,SummerDesignDay
8,14.968821767219835
10,38373430.62609944
618,0.0
655,28050029.40116404
2,1, 7,21, 0,22,50.00,60.00,SummerDesignDay
8,14.90141525878635
10,38373430.62609944
618,0.0
655,27773365.59955196
2,1, 7,21, 0,22, 0.00,60.00,SummerDesignDay
344,23.993323399850948
384,24.000000000000019
424,23.54196428615658
464,24.000000000000019
504,23.73280642476044
2,1, 7,21, 0,23, 0.00,10.00,SummerDesignDay
8,14.848873673278373
10,38373430.62609944
618,0.0
655,27546088.70505467
2,1, 7,21, 0,23,10.00,20.00,SummerDesignDay
8,14.796237168136719
10,38373430.62609944
618,0.0
655,27324096.493077689
2,1, 7,21, 0,23,20.00,30.00,SummerDesignDay
8,14.743494321455645
10,38373430.62609944
618,0.0
655,27107026.978152619
2,1, 7,21, 0,23,30.00,40.00,SummerDesignDay
8,14.690649975253665
10,38373430.62609944
618,0.0
655,26893049.667581709
2,1, 7,21, 0,23,40.00,50.00,SummerDesignDay
8,14.637704281233117
10,38373430.62609944
618,0.0
655,26681894.073545599
2,1, 7,21, 0,23,50.00,60.00,SummerDesignDay
8,14.584656914839757
10,38373430.62609944
618,0.0
655,26473236.867968538
2,1, 7,21, 0,23, 0.00,60.00,SummerDesignDay
344,23.86397465818293
384,24.000000000000015
424,22.819591042201514
464,24.00000000000001
504,23.226656474309285
2,1, 7,21, 0,24, 0.00,10.00,SummerDesignDay
8,14.531507212058875
10,37844685.02665511
618,0.0
655,26264389.530743325
2,1, 7,21, 0,24,10.00,20.00,SummerDesignDay
8,14.47825496413355
10,37844685.02665511
618,0.0
655,26055010.062887744
2,1, 7,21, 0,24,20.00,30.00,SummerDesignDay
8,14.4249000133173
10,37844685.02665511
618,0.0
655,25844834.549618849
2,1, 7,21, 0,24,30.00,40.00,SummerDesignDay
8,14.371447531304272
10,37844685.02665511
618,0.0
655,25634755.411411309
2,1, 7,21, 0,24,40.00,50.00,SummerDesignDay
8,14.31788619902223
10,37844685.02665511
618,0.0
655,25425147.283485839
2,1, 7,21, 0,24,50.00,60.00,SummerDesignDay
8,14.264220970176066
10,37844685.02665511
618,0.0
655,25216389.933521257
2,1, 7,21, 0,24, 0.00,60.00,SummerDesignDay
344,23.625912757740026
384,24.000000000000015
424,22.32574783752384
464,24.0
504,22.66667413602809
3,1, 7,21, 0,SummerDesignDay
345,44.56242064316417,40.51367835516247,19,10,49.342171144804087, 7,10
385,43.9114317956412,43.678222403207168,18,40,44.246326257118528, 8,29
425,48.912537124026218,44.04756192538735,10,60,54.45825496932777, 6,50
465,43.217906251572298,43.076735798727778,18,20,43.422553674167847, 8,13
505,46.726067198281139,42.0955672516061,14,60,54.08106181012868, 6,40
4,1, 7
7,22.2505,16.5,21, 5,60,28.9,21,14,60
1,FORT MCMURRAY AP ANN HTG 99.6% CONDNS DB,  56.65,-111.22,  -7.00, 369.10
2,1, 1,21, 0, 1, 0.00,10.00,WinterDesignDay
8,-36.2
10,37844685.02665511
618,153149045.0274313
655,0.0
2,1, 1,21, 0, 1,10.00,20.00,WinterDesignDay
8,-36.2
10,37844685.02665511
618,153188077.26151944
655,0.0
2,1, 1,21, 0, 1,20.00,30.00,WinterDesignDay
8,-36.2
10,37844685.02665511
618,153220168.0063179
655,0.0
2,1, 1,21, 0, 1,30.00,40.00,WinterDesignDay
8,-36.2
10,37844685.02665511
618,153246546.7638662
655,0.0
2,1, 1,21, 0, 1,40.00,50.00,WinterDesignDay
8,-36.2
10,37844685.02665511
618,153268282.21966536
655,0.0
2,1, 1,21, 0, 1,50.00,60.00,WinterDesignDay
8,-36.2
10,37844685.02665511
618,153286257.43833796
655,0.0
2,1, 1,21, 0, 1, 0.00,60.00,WinterDesignDay
344,22.0
384,22.00000000000001
424,18.000000000000008
464,22.000000000000026
504,18.00000000000001
2,1, 1,21, 0, 2, 0.00,10.00,WinterDesignDay
8,-36.2
10,37844685.02665511
618,86210189.32355055
655,0.0
2,1, 1,21, 0, 2,10.00,20.00,WinterDesignDay
8,-36.2
10,37844685.02665511
618,86278256.11116514
655,0.0
2,1, 1,21, 0, 2,20.00,30.00,WinterDesignDay
8,-36.2
10,37844685.02665511
618,89030392.55613382
655,0.0
2,1, 1,21, 0, 2,30.00,40.00,WinterDesignDay
8,-36.2
10,37844685.02665511
618,99856681.25423759
655,0.0
2,1, 1,21, 0, 2,40.00,50.00,WinterDesignDay
8,-36.2
10,37844685.02665511
618,111264423.3088432
655,0.0
2,1, 1,21, 0, 2,50.00,60.00,WinterDesignDay
8,-36.2
10,37844685.02665511
618,124324895.1088733
655,0.0
2,1, 1,21, 0, 2, 0.00,60.00,WinterDesignDay
344,18.857566252818477
384,19.222975150395404
424,18.00000000000001
464,19.581845342429735
504,18.000000000000008
2,1, 1,21, 0, 3, 0.00,10.00,WinterDesignDay
8,-36.2
10,37844685.02665511
618,134127406.60220023
655,0.0
2,1, 1,21, 0, 3,10.00,20.00,WinterDesignDay
8,-36.2
10,37844685.02665511
618,128130784.422932
655,0.0
2,1, 1,21, 0, 3,20.00,30.00,WinterDesignDay
8,-36.2
10,37844685.02665511
618,130831655.75509101
655,0.0
2,1, 1,21, 0, 3,30.00,40.00,WinterDesignDay
8,-36.2
10,37844685.02665511
618,131612792.34831216
655,0.0
2,1, 1,21, 0, 3,40.00,50.00,WinterDesignDay
8,-36.2
10,37844685.02665511
618,132095873.41953838
655,0.0
2,1, 1,21, 0, 3,50.00,60.00,WinterDesignDay
8,-36.2
10,37844685.02665511
618,132458046.87413308
655,0.0
2,1, 1,21, 0, 3, 0.00,60.00,WinterDesignDay
344,18.00000000000076
384,18.000000000873447
424,18.00000000000001
464,18.00000007709288
504,18.000000000000008
2,1, 1,21, 0, 4, 0.00,10.00,WinterDesignDay
8,-36.2
10,37844685.02665511
618,132745019.72720993
655,0.0
2,1, 1,21, 0, 4,10.00,20.00,WinterDesignDay
8,-36.2
10,37844685.02665511
618,132958383.35784348
655,0.0
2,1, 1,21, 0, 4,20.00,30.00,WinterDesignDay
8,-36.2
10,37844685.02665511
618,133115081.12499297
655,0.0
2,1, 1,21, 0, 4,30.00,40.00,WinterDesignDay
8,-36.2
10,37844685.02665511
618,133248223.123119
655,0.0
2,1, 1,21, 0, 4,40.00,50.00,WinterDesignDay
8,-36.2
10,37844685.02665511
618,133359044.97563532
655,0.0
2,1, 1,21, 0, 4,50.00,60.00,WinterDesignDay
8,-36.2
10,37844685.02665511
618,133433881.62296473
655,0.0
2,1, 1,21, 0, 4, 0.00,60.00,WinterDesignDay
344,18.00000000000001
384,18.000000000000033
424,18.000000000000005
464,18.000000000000026
504,18.00000000000001
2,1, 1,21, 0, 5, 0.00,10.00,WinterDesignDay
8,-36.2
10,37844685.02665511
618,133496913.5107218
655,0.0
2,1, 1,21, 0, 5,10.00,20.00,WinterDesignDay
8,-36.2
10,37844685.02665511
618,133552609.86636439
655,0.0
2,1, 1,21, 0, 5,20.00,30.00,WinterDesignDay
8,-36.2
10,37844685.02665511
618,133599150.25760383
655,0.0
2,1, 1,21, 0, 5,30.00,40.00,WinterDesignDay
8,-36.2
10,37844685.02665511
618,133637378.5210113
655,0.0
2,1, 1,21, 0, 5,40.00,50.00,WinterDesignDay
8,-36.2
10,37844685.02665511
618,133668663.92959051
655,0.0
2,1, 1,21, 0, 5,50.00,60.00,WinterDesignDay
8,-36.2
10,37844685.02665511
618,133694307.67406696
655,0.0
2,1, 1,21, 0, 5, 0.00,60.00,WinterDesignDay
344,18.00000000000001
384,18.00000000000003
424,18.000000000000005
464,18.00000000000001
504,18.00000000000001
2,1, 1,21, 0, 6, 0.00,10.00,WinterDesignDay
8,-36.2
10,37844685.02665511
618,133715407.34898943
655,0.0
2,1, 1,21, 0, 6,10.00,20.00,WinterDesignDay
8,-36.2
10,37844685.02665511
618,133727872.08332655
655,0.0
2,1, 1,21, 0, 6,20.00,30.00,WinterDesignDay
8,-36.2
10,37844685.02665511
618,133738052.97053142
655,0.0
2,1, 1,21, 0, 6,30.00,40.00,WinterDesignDay
8,-36.2
10,37844685.02665511
618,133748242.33905137
655,0.0
2,1, 1,21, 0, 6,40.00,50.00,WinterDesignDay
8,-36.2
10,37844685.02665511
618,133757757.67232278
655,0.0
2,1, 1,21, 0, 6,50.00,60.00,WinterDesignDay
8,-36.2
10,37844685.02665511
618,133766449.69942151
655,0.0
2,1, 1,21, 0, 6, 0.00,60.00,WinterDesignDay
344,18.00000000000001
384,18.00000000000003
424,18.000000000000008
464,18.000000000000005
504,18.000000000000008
2,1, 1,21, 0, 7, 0.00,10.00,WinterDesignDay
8,-36.2
10,37844685.02665511
618,160363911.89619056
655,0.0
2,1, 1,21, 0, 7,10.00,20.00,WinterDesignDay
8,-36.2
10,37844685.02665511
618,117939451.65352308
655,0.0
2,1, 1,21, 0, 7,20.00,30.00,WinterDesignDay
8,-36.2
10,37844685.02665511
618,144750590.1092992
655,0.0
2,1, 1,21, 0, 7,30.00,40.00,WinterDesignDay
8,-36.2
10,37844685.02665511
618,138113956.57431359
655,0.0
2,1, 1,21, 0, 7,40.00,50.00,WinterDesignDay
8,-36.2
10,37844685.02665511
618,138154420.08331157
655,0.0
2,1, 1,21, 0, 7,50.00,60.00,WinterDesignDay
8,-36.2
10,37844685.02665511
618,138030560.02926068
655,0.0
2,1, 1,21, 0, 7, 0.00,60.00,WinterDesignDay
344,18.00000000000001
384,18.000000000000026
424,18.0
464,18.000000000000019
504,20.010537297702006
2,1, 1,21, 0, 8, 0.00,10.00,WinterDesignDay
8,-36.2
10,41332156.001636128
618,279137976.7517648
655,0.0
2,1, 1,21, 0, 8,10.00,20.00,WinterDesignDay
8,-36.2
10,41332156.001636128
618,148310522.9359517
655,0.0
2,1, 1,21, 0, 8,20.00,30.00,WinterDesignDay
8,-36.2
10,41332156.001636128
618,201568902.2833361
655,0.0
2,1, 1,21, 0, 8,30.00,40.00,WinterDesignDay
8,-36.2
10,41332156.001636128
618,153490411.09580178
655,0.0
2,1, 1,21, 0, 8,40.00,50.00,WinterDesignDay
8,-36.2
10,41332156.001636128
618,155521708.05366589
655,0.0
2,1, 1,21, 0, 8,50.00,60.00,WinterDesignDay
8,-36.2
10,41332156.001636128
618,154734064.13773275
655,0.0
2,1, 1,21, 0, 8, 0.00,60.00,WinterDesignDay
344,20.04610351925182
384,20.053284535575199
424,20.018830615239485
464,20.061992646346014
504,22.011098632440164
2,1, 1,21, 0, 9, 0.00,10.00,WinterDesignDay
8,-36.2
10,58938259.47245635
618,252473971.25120915
655,0.0
2,1, 1,21, 0, 9,10.00,20.00,WinterDesignDay
8,-36.2
10,58938259.47245635
618,65044561.965002987
655,0.0
2,1, 1,21, 0, 9,20.00,30.00,WinterDesignDay
8,-36.2
10,58938259.47245635
618,162463379.22334723
655,0.0
2,1, 1,21, 0, 9,30.00,40.00,WinterDesignDay
8,-36.2
10,58938259.47245635
618,160024069.2688933
655,0.0
2,1, 1,21, 0, 9,40.00,50.00,WinterDesignDay
8,-36.2
10,58938259.47245635
618,149858986.14150036
655,0.0
2,1, 1,21, 0, 9,50.00,60.00,WinterDesignDay
8,-36.2
10,58938259.47245635
618,150909544.43440549
655,0.0
2,1, 1,21, 0, 9, 0.00,60.00,WinterDesignDay
344,22.05138967298568
384,22.095362841751194
424,22.022616137334
464,22.127014070318084
504,22.000000000000115
2,1, 1,21, 0,10, 0.00,10.00,WinterDesignDay
8,-36.2
10,68039433.72695332
618,142503320.40751264
655,0.0
2,1, 1,21, 0,10,10.00,20.00,WinterDesignDay
8,-36.2
10,68039433.72695332
618,140731425.81454189
655,0.0