Program Version,EnergyPlus, Version 8.9.0-eba93e8e1b, YMD=2019.03.20 17:53
1,5,Environment Title[],Latitude[deg],Longitude[deg],Time Zone[],Elevation[m]
2,8,Day of Simulation[],Month[],Day of Month[],DST Indicator[1=yes 0=no],Hour[],StartMinute[],EndMinute[],DayType
3,5,Cumulative Day of Simulation[],Month[],Day of Month[],DST Indicator[1=yes 0=no],DayType  ! When Daily Report Variables Requested
4,2,Cumulative Days of Simulation[],Month[]  ! When Monthly Report Variables Requested
5,1,Cumulative Days of Simulation[] ! When Run Period Report Variables Requested
6,1,Calendar Year of Simulation[] ! When Annual Report Variables Requested
7,9,Environment,Site Outdoor Air Drybulb Temperature [C] !Monthly [Value,Min,Day,Hour,Minute,Max,Day,Hour,Minute]
8,1,Environment,Site Outdoor Air Wetbulb Temperature [C] !TimeStep
875,1,ATRIUM - H < 13M-SPACE FUNCTION ZN,Zone Air Temperature [C] !Hourly
876,7,ATRIUM - H < 13M-SPACE FUNCTION ZN,Zone Air Relative Humidity [%] !Daily [Value,Min,Hour,Minute,Max,Hour,Minute]
915,1,ATRIUM - H > 13M-SPACE FUNCTION ZN,Zone Air Temperature [C] !Hourly
916,7,ATRIUM - H > 13M-SPACE FUNCTION ZN,Zone Air Relative Humidity [%] !Daily [Value,Min,Hour,Minute,Max,Hour,Minute]
955,1,AUDIENCE - AUDITORIUM-SPACE FUNCTION ZN,Zone Air Temperature [C] !Hourly
956,7,AUDIENCE - AUDITORIUM-SPACE FUNCTION ZN,Zone Air Relative Humidity [%] !Daily [Value,Min,Hour,Minute,Max,Hour,Minute]
995,1,AUDIENCE - MOTION PICTURE-SPACE FUNCTION ZN,Zone Air Temperature [C] !Hourly
996,7,AUDIENCE - MOTION PICTURE-SPACE FUNCTION ZN,Zone Air Relative Humidity [%] !Daily [Value,Min,Hour,Minute,Max,Hour,Minute]
1035,1,AUDIENCE - PERFORMANCE ARTS-SPACE FUNCTION ZN,Zone Air Temperature [C] !Hourly
1036,7,AUDIENCE - PERFORMANCE ARTS-SPACE FUNCTION ZN,Zone Air Relative Humidity [%] !Daily [Value,Min,Hour,Minute,Max,Hour,Minute]
1075,1,AUTOMOTIVE - REPAIR-SPACE FUNCTION ZN,Zone Air Temperature [C] !Hourly
1076,7,AUTOMOTIVE - REPAIR-SPACE FUNCTION ZN,Zone Air Relative Humidity [%] !Daily [Value,Min,Hour,Minute,Max,Hour,Minute]
1115,1,BANK - BANKING AND OFFICES-SPACE FUNCTION ZN,Zone Air Temperature [C] !Hourly
1116,7,BANK - BANKING AND OFFICES-SPACE FUNCTION ZN,Zone Air Relative Humidity [%] !Daily [Value,Min,Hour,Minute,Max,Hour,Minute]
1155,1,CLASSROOM/LECTURE/TRAINING-SPACE FUNCTION ZN,Zone Air Temperature [C] !Hourly
1156,7,CLASSROOM/LECTURE/TRAINING-SPACE FUNCTION ZN,Zone Air Relative Humidity [%] !Daily [Value,Min,Hour,Minute,Max,Hour,Minute]
1195,1,CONF./MEET./MULTI-PURPOSE-SPACE FUNCTION ZN,Zone Air Temperature [C] !Hourly
1196,7,CONF./MEET./MULTI-PURPOSE-SPACE FUNCTION ZN,Zone Air Relative Humidity [%] !Daily [Value,Min,Hour,Minute,Max,Hour,Minute]
1235,1,CONVENTION CENTRE - AUDIENCE-SPACE FUNCTION ZN,Zone Air Temperature [C] !Hourly
1236,7,CONVENTION CENTRE - AUDIENCE-SPACE FUNCTION ZN,Zone Air Relative Humidity [%] !Daily [Value,Min,Hour,Minute,Max,Hour,Minute]
1275,1,CONVENTION CENTRE - EXHIBIT-SPACE FUNCTION ZN,Zone Air Temperature [C] !Hourly
1276,7,CONVENTION CENTRE - EXHIBIT-SPACE FUNCTION ZN,Zone Air Relative Humidity [%] !Daily [Value,Min,Hour,Minute,Max,Hour,Minute]
1315,1,CORR. < 2.4M WIDE-SCH-A-SPACE FUNCTION ZN,Zone Air Temperature [C] !Hourly
1316,7,CORR. < 2.4M WIDE-SCH-A-SPACE FUNCTION ZN,Zone Air Relative Humidity [%] !Daily [Value,Min,Hour,Minute,Max,Hour,Minute]
1355,1,WHOLEBUILDING-PARKING GARAGE ZN,Zone Air Temperature [C] !Hourly
1356,7,WHOLEBUILDING-PARKING GARAGE ZN,Zone Air Relative Humidity [%] !Daily [Value,Min,Hour,Minute,Max,Hour,Minute]
1395,1,WHOLEBUILDING-PENITENTIARY ZN,Zone Air Temperature [C] !Hourly
1396,7,WHOLEBUILDING-PENITENTIARY ZN,Zone Air Relative Humidity [%] !Daily [Value,Min,Hour,Minute,Max,Hour,Minute]
1435,1,WHOLEBUILDING-PERFORMING ARTS THEATRE ZN,Zone Air Temperature [C] !Hourly
1436,7,WHOLEBUILDING-PERFORMING ARTS THEATRE ZN,Zone Air Relative Humidity [%] !Daily [Value,Min,Hour,Minute,Max,Hour,Minute]
1475,1,WHOLEBUILDING-POLICE STATION ZN,Zone Air Temperature [C] !Hourly
1476,7,WHOLEBUILDING-POLICE STATION ZN,Zone Air Relative Humidity [%] !Daily [Value,Min,Hour,Minute,Max,Hour,Minute]
1515,1,WHOLEBUILDING-POST OFFICE ZN,Zone Air Temperature [C] !Hourly
1516,7,WHOLEBUILDING-POST OFFICE ZN,Zone Air Relative Humidity [%] !Daily [Value,Min,Hour,Minute,Max,Hour,Minute]
1555,1,WHOLEBUILDING-RELIGIOUS ZN,Zone Air Temperature [C] !Hourly
1556,7,WHOLEBUILDING-RELIGIOUS ZN,Zone Air Relative Humidity [%] !Daily [Value,Min,Hour,Minute,Max,Hour,Minute]
1595,1,WHOLEBUILDING-RETAIL ZN,Zone Air Temperature [C] !Hourly
1596,7,WHOLEBUILDING-RETAIL ZN,Zone Air Relative Humidity [%] !Daily [Value,Min,Hour,Minute,Max,Hour,Minute]
1635,1,WHOLEBUILDING-SCHOOL/UNIVERSITY ZN,Zone Air Temperature [C] !Hourly
1636,7,WHOLEBUILDING-SCHOOL/UNIVERSITY ZN,Zone Air Relative Humidity [%] !Daily [Value,Min,Hour,Minute,Max,Hour,Minute]
10,1,Electricity:Facility [J] !TimeStep
1786,1,DistrictCooling:Facility [J] !TimeStep
1749,1,DistrictHeating:Facility [J] !TimeStep
End of Data Dictionary
1,FORT MCMURRAY AP ANN CLG .4% CONDNS DB=>MWB,  56.65,-111.22,  -7.00, 369.10
2,1, 7,21, 0, 1, 0.00,10.00,SummerDesignDay
8,14.218136923962174
10,61942921.96830283
1749,0.0
1786,37441870.993153687
2,1, 7,21, 0, 1,10.00,20.00,SummerDesignDay
8,14.171982153293495
10,61942921.96830283
1749,0.0
1786,36992233.32512504
2,1, 7,21, 0, 1,20.00,30.00,SummerDesignDay
8,14.125744780286427
10,61942921.96830283
1749,0.0
1786,36560975.84918204
2,1, 7,21, 0, 1,30.00,40.00,SummerDesignDay
8,14.079436086331978
10,61942921.96830283
1749,0.0
1786,36131143.10246687
2,1, 7,21, 0, 1,40.00,50.00,SummerDesignDay
8,14.033050387896898
10,61942921.96830283
1749,0.0
1786,35701183.36522375
2,1, 7,21, 0, 1,50.00,60.00,SummerDesignDay
8,13.986581233564835
10,61942921.96830283
1749,0.0
1786,35274735.41016065
2,1, 7,21, 0, 1, 0.00,60.00,SummerDesignDay
875,24.9768436623587
915,23.876181024961338
955,20.968658104662727
995,21.098754338022375
1035,22.0725351631623
1075,22.732506959323847
1115,23.4150744831506
1155,22.177532829373324
1195,22.338099652033646
1235,21.679683176474197
1275,24.25367570350517
1315,24.865643171034014
1355,23.933507324479377
1395,24.0
1435,23.27555926554668
1475,24.000000000000005
1515,24.623656302393596
1555,25.096339199510003
1595,24.706184237006626
1635,23.498605949737983
2,1, 7,21, 0, 2, 0.00,10.00,SummerDesignDay
8,13.95555882260429
10,56222344.57822226
1749,0.0
1786,34914208.605778958
2,1, 7,21, 0, 2,10.00,20.00,SummerDesignDay
8,13.924507755336454
10,56222344.57822226
1749,0.0
1786,34548075.64432749
2,1, 7,21, 0, 2,20.00,30.00,SummerDesignDay
8,13.893416042989206
10,56222344.57822226
1749,0.0
1786,34178030.596887428
2,1, 7,21, 0, 2,30.00,40.00,SummerDesignDay
8,13.862289589689029
10,56222344.57822226
1749,0.0
1786,33806398.34775801
2,1, 7,21, 0, 2,40.00,50.00,SummerDesignDay
8,13.831134407608739
10,56222344.57822226
1749,0.0
1786,33434418.499000055
2,1, 7,21, 0, 2,50.00,60.00,SummerDesignDay
8,13.799938415548118
10,56222344.57822226
1749,0.0
1786,33062932.53007721
2,1, 7,21, 0, 2, 0.00,60.00,SummerDesignDay
875,24.78918603375696
915,23.59979847165953
955,20.530549564894846
995,20.64945259909592
1035,21.609277381326306
1075,22.442244306090037
1115,23.16211598808221
1155,21.793081602307429
1195,21.867789793781545
1235,21.229508913543027
1275,23.944629978209055
1315,24.73819073250681
1355,23.657878099982616
1395,24.000000000000015
1435,22.89815009676229
1475,24.0
1515,24.330535138085869
1555,24.734378465430287
1595,24.482646480515006
1635,23.231784972645767
2,1, 7,21, 0, 3, 0.00,10.00,SummerDesignDay
8,13.776521671948676
10,56222344.57822226
1749,0.0
1786,32727495.64653451
2,1, 7,21, 0, 3,10.00,20.00,SummerDesignDay
8,13.753085235778466
10,56222344.57822226
1749,0.0
1786,32393867.84281283
2,1, 7,21, 0, 3,20.00,30.00,SummerDesignDay
8,13.729636002354969
10,56222344.57822226
1749,0.0
1786,32061679.329370254
2,1, 7,21, 0, 3,30.00,40.00,SummerDesignDay
8,13.706147375533054
10,56222344.57822226
1749,0.0
1786,31730833.452059986
2,1, 7,21, 0, 3,40.00,50.00,SummerDesignDay
8,13.682651961920304
10,56222344.57822226
1749,0.0
1786,31401285.043079344
2,1, 7,21, 0, 3,50.00,60.00,SummerDesignDay
8,13.659136670643687
10,56222344.57822226
1749,0.0
1786,31072915.551634104
2,1, 7,21, 0, 3, 0.00,60.00,SummerDesignDay
875,24.619736474644907
915,23.37583949857746
955,20.205626133653394
995,20.312020106674074
1035,21.253864298753233
1075,22.217197297217067
1115,22.969360760611865
1155,21.50031925020195
1195,21.494416571561179
1235,20.883519845424396
1275,23.680355553157964
1315,24.633846532539264
1355,23.3515416558453
1395,24.000000000000015
1435,22.59092533052446
1475,24.00000000000001
1515,24.077943404824209
1555,24.30658572509678
1595,24.286236220540287
1635,23.015523797464796
2,1, 7,21, 0, 4, 0.00,10.00,SummerDesignDay
8,13.63560137410855
10,56222344.57822226
1749,0.0
1786,30745612.137336077
2,1, 7,21, 0, 4,10.00,20.00,SummerDesignDay
8,13.612040802606578
10,56222344.57822226
1749,0.0
1786,30419241.002507874
2,1, 7,21, 0, 4,20.00,30.00,SummerDesignDay
8,13.58846620506876
10,56222344.57822226
1749,0.0
1786,30093742.666666457
2,1, 7,21, 0, 4,30.00,40.00,SummerDesignDay
8,13.56487178447336
10,56222344.57822226
1749,0.0
1786,29769016.598384099
2,1, 7,21, 0, 4,40.00,50.00,SummerDesignDay
8,13.541257354069103
10,56222344.57822226
1749,0.0
1786,29444993.555628964
2,1, 7,21, 0, 4,50.00,60.00,SummerDesignDay
8,13.517617463812285
10,56222344.57822226
1749,0.0
1786,29121597.090324955
2,1, 7,21, 0, 4, 0.00,60.00,SummerDesignDay
875,24.448901788818163
915,23.179493694237789
955,19.919688510945446
995,20.012847633806659
1035,20.936297629966345
1075,22.015462140909297
1115,22.79929191532897
1155,21.2368107487869
1195,21.15980547836018
1235,20.573558288699087
1275,23.429416409122095
1315,24.53587065727726
1355,23.055398694192094
1395,24.000000000000015
1435,22.317041587075506
1475,24.00000000000001
1515,23.83972627267129
1555,24.033768937177073
1595,24.096813129351415
1635,22.81700710310795
2,1, 7,21, 0, 5, 0.00,10.00,SummerDesignDay
8,13.50185415824011
10,56222344.57822226
1749,0.0
1786,28834060.17665808
2,1, 7,21, 0, 5,10.00,20.00,SummerDesignDay
8,13.486076034032447
10,56222344.57822226
1749,0.0
1786,29640257.550641426
2,1, 7,21, 0, 5,20.00,30.00,SummerDesignDay
8,13.470289340350983
10,56222344.57822226
1749,0.0
1786,30473414.399636188
2,1, 7,21, 0, 5,30.00,40.00,SummerDesignDay
8,13.454493322631063
10,56222344.57822226
1749,0.0
1786,31466051.03801912
2,1, 7,21, 0, 5,40.00,50.00,SummerDesignDay
8,13.438688835118548
10,56222344.57822226
1749,0.0
1786,32611091.613686555
2,1, 7,21, 0, 5,50.00,60.00,SummerDesignDay
8,13.422888173889437
10,56222344.57822226
1749,0.0
1786,33750776.43843208
2,1, 7,21, 0, 5, 0.00,60.00,SummerDesignDay
875,24.28317989273843
915,23.05680674859398
955,19.665199936117728
995,19.745179047328614
1035,20.73741528801538
1075,21.827559619221039
1115,22.642145726534925
1155,21.05028066834424
1195,20.916517745267467
1235,20.299470382532318
1275,23.29404802333437
1315,24.44034730713081
1355,22.841928187746693
1395,24.000000000000019
1435,22.260303591511588
1475,24.000000000000019
1515,23.677463092225808
1555,23.786879998314946
1595,23.917577094596515
1635,22.628371748982429
2,1, 7,21, 0, 6, 0.00,10.00,SummerDesignDay
8,13.438688835118548
10,56222344.57822226
1749,0.0
1786,34939154.96808826
2,1, 7,21, 0, 6,10.00,20.00,SummerDesignDay
8,13.454493322631063
10,56222344.57822226
1749,0.0
1786,36126925.81454332
2,1, 7,21, 0, 6,20.00,30.00,SummerDesignDay
8,13.470289340350983
10,56222344.57822226
1749,0.0
1786,37304616.792760919
2,1, 7,21, 0, 6,30.00,40.00,SummerDesignDay
8,13.486076034032447
10,56222344.57822226
1749,0.0
1786,38447894.57585547
2,1, 7,21, 0, 6,40.00,50.00,SummerDesignDay
8,13.50185415824011
10,56222344.57822226
1749,0.0
1786,39543405.05369419
2,1, 7,21, 0, 6,50.00,60.00,SummerDesignDay
8,13.517617463812285
10,56222344.57822226
1749,0.0
1786,40599510.280559349
2,1, 7,21, 0, 6, 0.00,60.00,SummerDesignDay
875,24.161433210827626
915,23.20225118282725
955,19.569489384601277
995,19.644204858306379
1035,20.929161117615995
1075,21.715649376528764
1115,22.545578881512076
1155,21.020334597491066
1195,20.98070058455929
1235,20.194034006686406
1275,23.5819742767208
1315,24.37406946684008
1355,22.934559529483363
1395,24.000000000000033
1435,22.653592861888489
1475,24.00000000000001
1515,23.64024098309702
1555,23.618834805138019
1595,23.79419518173965
1635,22.49724761468167
2,1, 7,21, 0, 7, 0.00,10.00,SummerDesignDay
8,13.572736920571789
10,56222344.57822226
1749,0.0
1786,51905077.976828288
2,1, 7,21, 0, 7,10.00,20.00,SummerDesignDay
8,13.627748229152554
10,56222344.57822226
1749,0.0
1786,43041283.43146227
2,1, 7,21, 0, 7,20.00,30.00,SummerDesignDay
8,13.682651961920304
10,56222344.57822226
1749,0.0
1786,44305165.803071808
2,1, 7,21, 0, 7,30.00,40.00,SummerDesignDay
8,13.737448093244995
10,56222344.57822226
1749,0.0
1786,49327647.44067525
2,1, 7,21, 0, 7,40.00,50.00,SummerDesignDay
8,13.792137011831216
10,56222344.57822226
1749,0.0
1786,49935977.382144007
2,1, 7,21, 0, 7,50.00,60.00,SummerDesignDay
8,13.846719282840333
10,56222344.57822226
1749,0.0
1786,50386851.68768214
2,1, 7,21, 0, 7, 0.00,60.00,SummerDesignDay
875,24.110032490645865
915,23.633302307647829
955,19.780192475984653
995,19.86652277861771
1035,21.400717318270325
1075,21.767113339757218
1115,22.58072682265146
1155,21.12408899518093
1195,21.41528035177346
1235,20.39227527775648
1275,23.990965528660195
1315,23.946317192637353
1355,23.335292531866256
1395,24.00000000000003
1435,22.9911373624615
1475,24.0
1515,23.59272176142851
1555,23.58673478188285
1595,23.760799399136109
1635,22.49086606483337
2,1, 7,21, 0, 8, 0.00,10.00,SummerDesignDay
8,13.978831900527043
10,69197236.5942693
1749,0.0
1786,68677142.67826738
2,1, 7,21, 0, 8,10.00,20.00,SummerDesignDay
8,14.110321014287419
10,69197236.5942693
1749,0.0
1786,63191379.7812297
2,1, 7,21, 0, 8,20.00,30.00,SummerDesignDay
8,14.241191509616986
10,69197236.5942693
1749,0.0
1786,76390546.10012335
2,1, 7,21, 0, 8,30.00,40.00,SummerDesignDay
8,14.371447531304272
10,69197236.5942693
1749,0.0
1786,82581427.95162812
2,1, 7,21, 0, 8,40.00,50.00,SummerDesignDay
8,14.501093766564925
10,69197236.5942693
1749,0.0
1786,94022786.60497485
2,1, 7,21, 0, 8,50.00,60.00,SummerDesignDay
8,14.630134792273804
10,69197236.5942693
1749,0.0
1786,99509388.86437425
2,1, 7,21, 0, 8, 0.00,60.00,SummerDesignDay
875,23.997903612249134
915,23.999810788921179
955,20.516884394439903
995,20.62723970473324
1035,22.30628287887239
1075,22.09342973159652
1115,23.198510320079163
1155,21.654972856215605
1195,22.52280760598568
1235,21.106308218831026
1275,24.00198758057201
1315,23.999999997084346
1355,23.963079129464377
1395,24.000000000000047
1435,23.784389597295279
1475,24.00000000000001
1515,23.930920906885974
1555,23.761672956921215
1595,23.854891667574326
1635,22.673285342535065
2,1, 7,21, 0, 9, 0.00,10.00,SummerDesignDay
8,14.773641492809972
10,182877727.9834169
1749,31978630.169143015
1786,143531480.67726354
2,1, 7,21, 0, 9,10.00,20.00,SummerDesignDay
8,14.91640948124148
10,182877727.9834169
1749,869045.9538974604
1786,163887818.44284234
2,1, 7,21, 0, 9,20.00,30.00,SummerDesignDay
8,15.05843890714102
10,182877727.9834169
1749,0.0
1786,186846767.08924354
2,1, 7,21, 0, 9,30.00,40.00,SummerDesignDay
8,15.199735893563798
10,182877727.9834169
1749,0.0
1786,207581791.14439038
2,1, 7,21, 0, 9,40.00,50.00,SummerDesignDay
8,15.340306256439395
10,182877727.9834169
1749,0.0
1786,216772205.6488906
2,1, 7,21, 0, 9,50.00,60.00,SummerDesignDay
8,15.48015101768072
10,182877727.9834169
1749,0.0
1786,232862854.60837446
2,1, 7,21, 0, 9, 0.00,60.00,SummerDesignDay
875,23.999999999998477
915,23.999999999999976
955,22.39801253430532
995,22.548633045499157
1035,23.786218170843218
1075,23.139584230811935
1115,23.975498707595198
1155,22.905557836221509
1195,23.910976279478417
1235,22.72700487916406
1275,24.000000000009935
1315,24.0
1355,23.99999999998671
1395,24.0
1435,23.99999997755761
1475,24.00000000000004
1515,23.99999999886596
1555,24.179014733536858
1595,23.999966805233389
1635,23.532267047430893
2,1, 7,21, 0,10, 0.00,10.00,SummerDesignDay
8,15.60467292907716
10,276488948.9012415
1749,0.0
1786,305103890.2152968
2,1, 7,21, 0,10,10.00,20.00,SummerDesignDay
8,15.72862731650033
10,276488948.9012415
1749,0.0
1786,340120413.44793787
2,1, 7,21, 0,10,20.00,30.00,SummerDesignDay
8,15.852017409284228
10,276488948.9012415
1749,0.0
1786,366265297.27422979
2,1, 7,21, 0,10,30.00,40.00,SummerDesignDay
8,15.974848118364367
10,276488948.9012415
1749,0.0
1786,392575514.6252866
2,1, 7,21, 0,10,40.00,50.00,SummerDesignDay
8,16.097123145563505
10,276488948.9012415
1749,0.0
1786,418165599.3988172
2,1, 7,21, 0,10,50.00,60.00,SummerDesignDay
8,16.218846351168599
10,276488948.9012415
1749,0.0
1786,442478088.44738867
2,1, 7,21, 0,10, 0.00,60.00,SummerDesignDay
875,24.000000000000015
915,24.000000000000019
955,23.774548259770268
995,23.878786588833809
1035,23.999998774666478
1075,23.983157844931524
1115,23.999999999997955
1155,23.98449129579959
1195,23.999999998131217
1235,23.930165502467664
1275,24.000000000000019
1315,24.00000000000001
1355,24.000000000000019
1395,24.000000000000069
1435,24.000000000000033
1475,24.00000000000001
1515,24.000000000000015
1555,24.760618186893955
1595,24.00000000000001
1635,23.999983113347267
2,1, 7,21, 0,11, 0.00,10.00,SummerDesignDay
8,16.325793027093189
10,279233926.0556489
1749,0.0
1786,501580918.9324292
2,1, 7,21, 0,11,10.00,20.00,SummerDesignDay
8,16.432322158488288
10,279233926.0556489
1749,0.0
1786,523937235.3214564
2,1, 7,21, 0,11,20.00,30.00,SummerDesignDay
8,16.538424180249178
10,279233926.0556489
1749,0.0
1786,545267065.5271059
2,1, 7,21, 0,11,30.00,40.00,SummerDesignDay
8,16.644108396469087
10,279233926.0556489
1749,0.0
1786,566061808.984355
2,1, 7,21, 0,11,40.00,50.00,SummerDesignDay
8,16.749376736593655
10,279233926.0556489
1749,0.0
1786,585913758.7758231
2,1, 7,21, 0,11,50.00,60.00,SummerDesignDay
8,16.854232613237156
10,279233926.0556489
1749,0.0
1786,605346977.7712574
2,1, 7,21, 0,11, 0.00,60.00,SummerDesignDay
875,23.999999999999998
915,24.000000000000015
955,23.999985121360436
995,23.9999985371326
1035,23.99999999999568
1075,23.999999999933534
1115,24.000000000000019
1155,23.99999999252692
1195,24.000000000000019
1235,23.999999658840438
1275,24.00000000000003
1315,24.000000000000005
1355,24.000000000000019
1395,24.000000000000044
1435,23.999999999999976
1475,24.0
1515,24.00000000000003
1555,25.41725145655107
1595,24.000000000000019
1635,24.00000000000001
2,1, 7,21, 0,12, 0.00,10.00,SummerDesignDay
8,16.92390823520069
10,279233926.0556489
1749,0.0
1786,619497490.5441715
2,1, 7,21, 0,12,10.00,20.00,SummerDesignDay
8,16.99340178950456
10,279233926.0556489
1749,0.0
1786,633447296.799441
2,1, 7,21, 0,12,20.00,30.00,SummerDesignDay
8,17.06272006743463
10,279233926.0556489
1749,0.0
1786,646856777.7684988
2,1, 7,21, 0,12,30.00,40.00,SummerDesignDay
8,17.131853229172639
10,279233926.0556489
1749,0.0
1786,659950317.0082821
2,1, 7,21, 0,12,40.00,50.00,SummerDesignDay
8,17.200807172194087
10,279233926.0556489
1749,0.0
1786,672986713.6099118
2,1, 7,21, 0,12,50.00,60.00,SummerDesignDay
8,17.269582116758607
10,279233926.0556489
1749,0.0
1786,685883403.9989967
2,1, 7,21, 0,12, 0.00,60.00,SummerDesignDay
875,24.000000000000005
915,24.000000000000033
955,23.999999997261737
995,23.99999999978031
1035,24.00000000000003
1075,24.00000000000001
1115,24.000000000000019
1155,23.99999999999984
1195,24.0
1235,23.999999999958548
1275,24.00000000000003
1315,23.999999999999987
1355,24.000000000000058
1395,24.000000000000026
1435,24.000000000000069
1475,24.00000000000001
1515,24.0
1555,26.082117954909909
1595,24.00000000000003
1635,24.00000000000001
2,1, 7,21, 0,13, 0.00,10.00,SummerDesignDay
8,17.32447360221357
10,279233926.0556489
1749,0.0
1786,713314409.6254675
2,1, 7,21, 0,13,10.00,20.00,SummerDesignDay
8,17.379251291230806
10,279233926.0556489
1749,0.0
1786,724668086.7527937
2,1, 7,21, 0,13,20.00,30.00,SummerDesignDay
8,17.433921312061729
10,279233926.0556489
1749,0.0
1786,735285418.5808512
2,1, 7,21, 0,13,30.00,40.00,SummerDesignDay
8,17.488473222557489
10,279233926.0556489
1749,0.0
1786,745507376.3143872
2,1, 7,21, 0,13,40.00,50.00,SummerDesignDay
8,17.542913447755134
10,279233926.0556489
1749,0.0
1786,755213205.8974153
2,1, 7,21, 0,13,50.00,60.00,SummerDesignDay
8,17.59724609886134
10,279233926.0556489
1749,0.0
1786,764386225.3503001
2,1, 7,21, 0,13, 0.00,60.00,SummerDesignDay
875,23.999999999999998
915,24.0
955,23.999999999999493
995,23.999999999999959
1035,23.999999999999984
1075,24.00000000000001
1115,24.000000000000019
1155,24.00000000000003
1195,24.00000000000003
1235,24.0
1275,24.000000000000047
1315,24.000000000000005
1355,24.0
1395,24.000000000000055
1435,24.000000000000047
1475,24.000000000000019
1515,24.000000000000026
1555,26.6522005581888
1595,24.00000000000003
1635,24.00000000000001
2,1, 7,21, 0,14, 0.00,10.00,SummerDesignDay
8,17.6311450462694
10,279233926.0556489
1749,0.0
1786,770596901.2350402
2,1, 7,21, 0,14,10.00,20.00,SummerDesignDay
8,17.665000449016245
10,279233926.0556489
1749,0.0
1786,776541953.2002574
2,1, 7,21, 0,14,20.00,30.00,SummerDesignDay
8,17.698812743128934
10,279233926.0556489
1749,0.0
1786,782340076.2021728
2,1, 7,21, 0,14,30.00,40.00,SummerDesignDay
8,17.732582050940107
10,279233926.0556489
1749,0.0
1786,788025679.3180984
2,1, 7,21, 0,14,40.00,50.00,SummerDesignDay
8,17.766307345121004
10,279233926.0556489
1749,0.0
1786,793651879.4817875
2,1, 7,21, 0,14,50.00,60.00,SummerDesignDay
8,17.79999023167558
10,279233926.0556489
1749,0.0
1786,799220618.6499678
2,1, 7,21, 0,14, 0.00,60.00,SummerDesignDay
875,24.000000000000019
915,24.000000000000058
955,24.0
995,24.000000000000015
1035,24.00000000000001
1075,24.000000000000005
1115,24.0
1155,24.000000000000019
1195,23.999999999999998
1235,24.00000000000001
1275,24.000000000000005
1315,24.000000000000015
1355,24.000000000000033
1395,23.99999999999997
1435,24.00000000000003
1475,24.0
1515,24.000000000000058
1555,27.06142974387699
1595,24.000000000000026
1635,24.00000000000001
2,1, 7,21, 0,15, 0.00,10.00,SummerDesignDay
8,17.79999023167558
10,279233926.0556489
1749,0.0
1786,859638249.1191212
2,1, 7,21, 0,15,10.00,20.00,SummerDesignDay
8,17.79999023167558
10,279233926.0556489
1749,0.0
1786,824346138.4720458
2,1, 7,21, 0,15,20.00,30.00,SummerDesignDay
8,17.79999023167558
10,279233926.0556489
1749,0.0
1786,841892362.7074913
2,1, 7,21, 0,15,30.00,40.00,SummerDesignDay
8,17.79999023167558
10,279233926.0556489
1749,0.0
1786,823702356.1609835
2,1, 7,21, 0,15,40.00,50.00,SummerDesignDay
8,17.79999023167558
10,279233926.0556489
1749,0.0
1786,826306702.8901053
2,1, 7,21, 0,15,50.00,60.00,SummerDesignDay
8,17.79999023167558
10,279233926.0556489
1749,0.0
1786,827007743.3508412
2,1, 7,21, 0,15, 0.00,60.00,SummerDesignDay
875,24.00000000000001
915,23.99999999999997
955,24.000000000000019
995,24.000000000000005
1035,24.00000000000003
1075,24.0
1115,24.000000000000005
1155,24.00000000000001
1195,24.00000000000003
1235,23.99999999999996
1275,24.00000000000001
1315,24.00000000000001
1355,23.999999999999998
1395,24.000000000000033
1435,24.000000000000044
1475,24.0
1515,24.000000000000015
1555,23.905498077405963
1595,24.00000000000003
1635,24.000000000000019
2,1, 7,21, 0,16, 0.00,10.00,SummerDesignDay
8,17.759562446305357
10,285067002.5096729
1749,0.0
1786,826954763.7377932
2,1, 7,21, 0,16,10.00,20.00,SummerDesignDay
8,17.71907809634183
10,285067002.5096729
1749,0.0
1786,821967974.6555483
2,1, 7,21, 0,16,20.00,30.00,SummerDesignDay
8,17.67853788661001
10,285067002.5096729
1749,0.0
1786,816309940.8588231
2,1, 7,21, 0,16,30.00,40.00,SummerDesignDay
8,17.63791796367351
10,285067002.5096729
1749,0.0
1786,810226615.2593522
2,1, 7,21, 0,16,40.00,50.00,SummerDesignDay
8,17.59724609886134
10,285067002.5096729
1749,0.0
1786,803793387.2199347
2,1, 7,21, 0,16,50.00,60.00,SummerDesignDay
8,17.55650676726033
10,285067002.5096729
1749,0.0
1786,797045343.2384827
2,1, 7,21, 0,16, 0.00,60.00,SummerDesignDay
875,24.00000000000001
915,24.00000000000003
955,24.0
995,24.000000000000033
1035,23.99999999999999
1075,24.000000000000019
1115,24.00000000000003
1155,23.999999999999976
1195,24.00000000000003
1235,23.99999999999999
1275,23.99999999999997
1315,24.00000000000001
1355,24.0
1395,24.000000000000026
1435,24.000000000000047
1475,24.000000000000015
1515,24.000000000000026
1555,23.999999999996747
1595,24.00000000000001
1635,24.0
2,1, 7,21, 0,17, 0.00,10.00,SummerDesignDay
8,17.50209486331892
10,277716313.6856313
1749,0.0
1786,788969958.6434578
2,1, 7,21, 0,17,10.00,20.00,SummerDesignDay
8,17.447570789624618
10,277716313.6856313
1749,0.0
1786,780317908.7909551
2,1, 7,21, 0,17,20.00,30.00,SummerDesignDay
8,17.392929544208135
10,277716313.6856313
1749,0.0
1786,771640600.360718
2,1, 7,21, 0,17,30.00,40.00,SummerDesignDay
8,17.33818013976614
10,277716313.6856313
1749,0.0
1786,762682041.1648699
2,1, 7,21, 0,17,40.00,50.00,SummerDesignDay
8,17.283317298559309
10,277716313.6856313
1749,0.0
1786,753392821.2260218
2,1, 7,21, 0,17,50.00,60.00,SummerDesignDay
8,17.22833552437677
10,277716313.6856313
1749,0.0
1786,743808667.0786475
2,1, 7,21, 0,17, 0.00,60.00,SummerDesignDay
875,24.00000000000001
915,24.000000000000005
955,24.00000000000001
995,24.0
1035,24.0
1075,23.999999999999998
1115,24.000000000000019
1155,24.000000000000019
1195,24.000000000000055
1235,23.999999999999984
1275,24.000000000000033
1315,23.999999999999998
1355,24.0
1395,23.999999999999976
1435,24.000000000000026
1475,24.00000000000001
1515,24.00000000000004
1555,24.000000000000044
1595,24.000000000000026
1635,24.000000000000015
2,1, 7,21, 0,18, 0.00,10.00,SummerDesignDay
8,17.159453019160176
10,265813162.74947778
1749,0.0
1786,709159983.9988614
2,1, 7,21, 0,18,10.00,20.00,SummerDesignDay
8,17.090391773337136
10,265813162.74947778
1749,0.0
1786,695564379.2891089
2,1, 7,21, 0,18,20.00,30.00,SummerDesignDay
8,17.021151077964786
10,265813162.74947778
1749,0.0
1786,681858653.8293759
2,1, 7,21, 0,18,30.00,40.00,SummerDesignDay
8,16.951729380464653
10,265813162.74947778
1749,0.0
1786,667851964.9058499
2,1, 7,21, 0,18,40.00,50.00,SummerDesignDay
8,16.882126503829249
10,265813162.74947778
1749,0.0
1786,654053528.537303
2,1, 7,21, 0,18,50.00,60.00,SummerDesignDay
8,16.812341807494034
10,265813162.74947778
1749,0.0
1786,640376706.531846
2,1, 7,21, 0,18, 0.00,60.00,SummerDesignDay
875,24.00000000000001
915,24.000000000000033
955,24.000000000000026
995,23.999999999999969
1035,23.999999999999955
1075,24.000000000000019
1115,23.999999999999998
1155,24.000000000000005
1195,24.000000000000019
1235,23.99999999999999
1275,24.00000000000004
1315,24.000000000000026
1355,24.0
1395,24.000000000000033
1435,23.999999999999987
1475,24.00000000000004
1515,24.000000000000026
1555,24.0
1595,23.999999999999969
1635,24.00000000000001
2,1, 7,21, 0,19, 0.00,10.00,SummerDesignDay
8,16.707321072823203
10,243407099.2277674
1749,0.0
1786,584564475.8790598
2,1, 7,21, 0,19,10.00,20.00,SummerDesignDay
8,16.601881826644556
10,243407099.2277674
1749,0.0
1786,563240737.8152287
2,1, 7,21, 0,19,20.00,30.00,SummerDesignDay
8,16.496030555252849
10,243407099.2277674
1749,0.0
1786,543097021.3962066
2,1, 7,21, 0,19,30.00,40.00,SummerDesignDay
8,16.389760181474104
10,243407099.2277674
1749,0.0
1786,523229731.13709786
2,1, 7,21, 0,19,40.00,50.00,SummerDesignDay
8,16.283067654262039
10,243407099.2277674
1749,0.0
1786,503707004.47409918
2,1, 7,21, 0,19,50.00,60.00,SummerDesignDay
8,16.17595057957811
10,243407099.2277674
1749,0.0
1786,484069410.93495687
2,1, 7,21, 0,19, 0.00,60.00,SummerDesignDay
875,24.00000000000001
915,24.0
955,24.000000000000019
995,24.000000000000015
1035,23.99999999999997
1075,23.999999999999987
1115,24.000000000000019
1155,24.000000000000015
1195,24.000000000000076
1235,24.000000000000015
1275,24.00000000000004
1315,24.0
1355,24.000000000000019
1395,24.00000000000003
1435,23.999999999999959
1475,24.00000000000004
1515,24.00000000000001
1555,23.99999999999996
1595,24.00000000000001
1635,24.0
2,1, 7,21, 0,20, 0.00,10.00,SummerDesignDay
8,16.097123145563505
10,188961302.3561984
1749,0.0
1786,414900045.5490397
2,1, 7,21, 0,20,10.00,20.00,SummerDesignDay
8,16.018070242471564
10,188961302.3561984
1749,0.0
1786,396894664.2458092
2,1, 7,21, 0,20,20.00,30.00,SummerDesignDay
8,15.938779752340516
10,188961302.3561984
1749,0.0
1786,381139142.4213968
2,1, 7,21, 0,20,30.00,40.00,SummerDesignDay
8,15.85926152575189
10,188961302.3561984
1749,0.0
1786,365256189.02209988
2,1, 7,21, 0,20,40.00,50.00,SummerDesignDay
8,15.779503718563929
10,188961302.3561984
1749,0.0
1786,349184301.55206248
2,1, 7,21, 0,20,50.00,60.00,SummerDesignDay
8,15.699515709672767
10,188961302.3561984
1749,0.0
1786,332726480.03263106
2,1, 7,21, 0,20, 0.00,60.00,SummerDesignDay
875,24.000000000000015
915,24.000000000000005
955,24.00000000000001
995,24.000000000000019
1035,24.000000000000047
1075,24.427119661554046
1115,24.000000000000005
1155,24.00000000000003
1195,24.000000000000026
1235,24.00000000000003
1275,24.000000000000019
1315,24.000000000000005
1355,24.0
1395,24.000000000000033
1435,24.000000000000033
1475,24.00000000000004
1515,24.00000000000003
1555,24.00000000000007
1595,24.000000000000026
1635,24.000000000000026
2,1, 7,21, 0,21, 0.00,10.00,SummerDesignDay
8,15.63389147320404
10,173637429.88964627
1749,0.0
1786,309589769.76729336
2,1, 7,21, 0,21,10.00,20.00,SummerDesignDay
8,15.56810827419793
10,173637429.88964627
1749,0.0
1786,293806276.16128209
2,1, 7,21, 0,21,20.00,30.00,SummerDesignDay
8,15.502170882753524
10,173637429.88964627
1749,0.0
1786,278611469.51397708
2,1, 7,21, 0,21,30.00,40.00,SummerDesignDay
8,15.436068032613852
10,173637429.88964627
1749,0.0
1786,264648826.2580656
2,1, 7,21, 0,21,40.00,50.00,SummerDesignDay
8,15.369804371206009
10,173637429.88964627
1749,0.0
1786,250848245.8311202
2,1, 7,21, 0,21,50.00,60.00,SummerDesignDay
8,15.303384603594449
10,173637429.88964627
1749,0.0
1786,238085980.94510035
2,1, 7,21, 0,21, 0.00,60.00,SummerDesignDay
875,24.000000000000026
915,24.0
955,23.926007939688068
995,23.993057355757473
1035,24.000000000000019
1075,24.19518968521908