Program Version,EnergyPlus, Version 8.9.0-eba93e8e1b, YMD=2019.03.19 18:43
1,5,Environment Title[],Latitude[deg],Longitude[deg],Time Zone[],Elevation[m]
2,8,Day of Simulation[],Month[],Day of Month[],DST Indicator[1=yes 0=no],Hour[],StartMinute[],EndMinute[],DayType
3,5,Cumulative Day of Simulation[],Month[],Day of Month[],DST Indicator[1=yes 0=no],DayType  ! When Daily Report Variables Requested
4,2,Cumulative Days of Simulation[],Month[]  ! When Monthly Report Variables Requested
5,1,Cumulative Days of Simulation[] ! When Run Period Report Variables Requested
6,1,Calendar Year of Simulation[] ! When Annual Report Variables Requested
7,9,Environment,Site Outdoor Air Drybulb Temperature [C] !Monthly [Value,Min,Day,Hour,Minute,Max,Day,Hour,Minute]
8,1,Environment,Site Outdoor Air Wetbulb Temperature [C] !TimeStep
849,1,STAIRWAY-SCH-F-SPACE FUNCTION ZN,Zone Air Temperature [C] !Hourly
850,7,STAIRWAY-SCH-F-SPACE FUNCTION ZN,Zone Air Relative Humidity [%] !Daily [Value,Min,Hour,Minute,Max,Hour,Minute]
889,1,STAIRWAY-SCH-G-SPACE FUNCTION ZN,Zone Air Temperature [C] !Hourly
890,7,STAIRWAY-SCH-G-SPACE FUNCTION ZN,Zone Air Relative Humidity [%] !Daily [Value,Min,Hour,Minute,Max,Hour,Minute]
929,1,STAIRWAY-SCH-H-SPACE FUNCTION ZN,Zone Air Temperature [C] !Hourly
930,7,STAIRWAY-SCH-H-SPACE FUNCTION ZN,Zone Air Relative Humidity [%] !Daily [Value,Min,Hour,Minute,Max,Hour,Minute]
969,1,STAIRWAY-SCH-I-SPACE FUNCTION ZN,Zone Air Temperature [C] !Hourly
970,7,STAIRWAY-SCH-I-SPACE FUNCTION ZN,Zone Air Relative Humidity [%] !Daily [Value,Min,Hour,Minute,Max,Hour,Minute]
1009,1,STORAGE AREA - OCCSENS-SPACE FUNCTION ZN,Zone Air Temperature [C] !Hourly
1010,7,STORAGE AREA - OCCSENS-SPACE FUNCTION ZN,Zone Air Relative Humidity [%] !Daily [Value,Min,Hour,Minute,Max,Hour,Minute]
1049,1,STORAGE AREA - REFRIGERATED - OCCSENS-SPACE FUNCTION ZN,Zone Air Temperature [C] !Hourly
1050,7,STORAGE AREA - REFRIGERATED - OCCSENS-SPACE FUNCTION ZN,Zone Air Relative Humidity [%] !Daily [Value,Min,Hour,Minute,Max,Hour,Minute]
1089,1,STORAGE AREA - REFRIGERATED-SPACE FUNCTION ZN,Zone Air Temperature [C] !Hourly
1090,7,STORAGE AREA - REFRIGERATED-SPACE FUNCTION ZN,Zone Air Relative Humidity [%] !Daily [Value,Min,Hour,Minute,Max,Hour,Minute]
1129,1,STORAGE AREA-SPACE FUNCTION ZN,Zone Air Temperature [C] !Hourly
1130,7,STORAGE AREA-SPACE FUNCTION ZN,Zone Air Relative Humidity [%] !Daily [Value,Min,Hour,Minute,Max,Hour,Minute]
1169,1,TRANSP. BAGGAGE-SPACE FUNCTION ZN,Zone Air Temperature [C] !Hourly
1170,7,TRANSP. BAGGAGE-SPACE FUNCTION ZN,Zone Air Relative Humidity [%] !Daily [Value,Min,Hour,Minute,Max,Hour,Minute]
1209,1,TRANSP. CONCOURSE-SPACE FUNCTION ZN,Zone Air Temperature [C] !Hourly
1210,7,TRANSP. CONCOURSE-SPACE FUNCTION ZN,Zone Air Relative Humidity [%] !Daily [Value,Min,Hour,Minute,Max,Hour,Minute]
1249,1,TRANSP. COUNTER-SPACE FUNCTION ZN,Zone Air Temperature [C] !Hourly
1250,7,TRANSP. COUNTER-SPACE FUNCTION ZN,Zone Air Relative Humidity [%] !Daily [Value,Min,Hour,Minute,Max,Hour,Minute]
1289,1,TRANSP. SEATING-SPACE FUNCTION ZN,Zone Air Temperature [C] !Hourly
1290,7,TRANSP. SEATING-SPACE FUNCTION ZN,Zone Air Relative Humidity [%] !Daily [Value,Min,Hour,Minute,Max,Hour,Minute]
1329,1,WAREHOUSE - FINE - REFRIGERATED-SPACE FUNCTION ZN,Zone Air Temperature [C] !Hourly
1330,7,WAREHOUSE - FINE - REFRIGERATED-SPACE FUNCTION ZN,Zone Air Relative Humidity [%] !Daily [Value,Min,Hour,Minute,Max,Hour,Minute]
1369,1,WAREHOUSE - FINE-SPACE FUNCTION ZN,Zone Air Temperature [C] !Hourly
1370,7,WAREHOUSE - FINE-SPACE FUNCTION ZN,Zone Air Relative Humidity [%] !Daily [Value,Min,Hour,Minute,Max,Hour,Minute]
1409,1,WAREHOUSE - MED/BLK - REFRIGERATED-SPACE FUNCTION ZN,Zone Air Temperature [C] !Hourly
1410,7,WAREHOUSE - MED/BLK - REFRIGERATED-SPACE FUNCTION ZN,Zone Air Relative Humidity [%] !Daily [Value,Min,Hour,Minute,Max,Hour,Minute]
1449,1,WAREHOUSE - MED/BLK-SPACE FUNCTION ZN,Zone Air Temperature [C] !Hourly
1450,7,WAREHOUSE - MED/BLK-SPACE FUNCTION ZN,Zone Air Relative Humidity [%] !Daily [Value,Min,Hour,Minute,Max,Hour,Minute]
1489,1,WAREHOUSE - MED/BLK2 - REFRIGERATED-SPACE FUNCTION ZN,Zone Air Temperature [C] !Hourly
1490,7,WAREHOUSE - MED/BLK2 - REFRIGERATED-SPACE FUNCTION ZN,Zone Air Relative Humidity [%] !Daily [Value,Min,Hour,Minute,Max,Hour,Minute]
1529,1,WAREHOUSE - MED/BLK2-SPACE FUNCTION ZN,Zone Air Temperature [C] !Hourly
1530,7,WAREHOUSE - MED/BLK2-SPACE FUNCTION ZN,Zone Air Relative Humidity [%] !Daily [Value,Min,Hour,Minute,Max,Hour,Minute]
1569,1,WASHROOM-SCH-A-SPACE FUNCTION ZN,Zone Air Temperature [C] !Hourly
1570,7,WASHROOM-SCH-A-SPACE FUNCTION ZN,Zone Air Relative Humidity [%] !Daily [Value,Min,Hour,Minute,Max,Hour,Minute]
1609,1,WASHROOM-SCH-B-SPACE FUNCTION ZN,Zone Air Temperature [C] !Hourly
1610,7,WASHROOM-SCH-B-SPACE FUNCTION ZN,Zone Air Relative Humidity [%] !Daily [Value,Min,Hour,Minute,Max,Hour,Minute]
10,1,Electricity:Facility [J] !TimeStep
1760,1,DistrictCooling:Facility [J] !TimeStep
1723,1,DistrictHeating:Facility [J] !TimeStep
End of Data Dictionary
1,FORT MCMURRAY AP ANN CLG .4% CONDNS DB=>MWB,  56.65,-111.22,  -7.00, 369.10
2,1, 7,21, 0, 1, 0.00,10.00,SummerDesignDay
8,14.218136923962174
10,76206303.27744122
1723,0.0
1760,49123523.73024994
2,1, 7,21, 0, 1,10.00,20.00,SummerDesignDay
8,14.171982153293495
10,76206303.27744122
1723,0.0
1760,47364000.21916098
2,1, 7,21, 0, 1,20.00,30.00,SummerDesignDay
8,14.125744780286427
10,76206303.27744122
1723,646899.9510498894
1760,46129527.681337099
2,1, 7,21, 0, 1,30.00,40.00,SummerDesignDay
8,14.079436086331978
10,76206303.27744122
1723,2158277.3403002286
1760,44913894.211791258
2,1, 7,21, 0, 1,40.00,50.00,SummerDesignDay
8,14.033050387896898
10,76206303.27744122
1723,3861446.5260977258
1760,43732465.669245589
2,1, 7,21, 0, 1,50.00,60.00,SummerDesignDay
8,13.986581233564835
10,76206303.27744122
1723,5196131.58068488
1760,42744546.95279758
2,1, 7,21, 0, 1, 0.00,60.00,SummerDesignDay
849,23.998008241313206
889,23.944618715835465
929,24.000000000000005
969,25.04533848164507
1009,25.62879538704065
1049,23.819954877466086
1089,24.034842552391316
1129,24.837236273438476
1169,24.000000000000026
1209,22.08083867059905
1249,24.00000000000001
1289,22.039019801431356
1329,24.043083954959824
1369,24.459279084908819
1409,25.39581605305887
1449,24.877258588433759
1489,24.5722882976752
1529,24.381184146196078
1569,25.553040599519674
1609,24.00000000000001
2,1, 7,21, 0, 2, 0.00,10.00,SummerDesignDay
8,13.95555882260429
10,62901414.010792929
1723,0.0
1760,31022461.909726759
2,1, 7,21, 0, 2,10.00,20.00,SummerDesignDay
8,13.924507755336454
10,62901414.010792929
1723,0.0
1760,30367096.168195309
2,1, 7,21, 0, 2,20.00,30.00,SummerDesignDay
8,13.893416042989206
10,62901414.010792929
1723,0.0
1760,29711534.65273846
2,1, 7,21, 0, 2,30.00,40.00,SummerDesignDay
8,13.862289589689029
10,62901414.010792929
1723,0.0
1760,29058843.801500724
2,1, 7,21, 0, 2,40.00,50.00,SummerDesignDay
8,13.831134407608739
10,62901414.010792929
1723,0.0
1760,28408929.81220448
2,1, 7,21, 0, 2,50.00,60.00,SummerDesignDay
8,13.799938415548118
10,62901414.010792929
1723,0.0
1760,27760370.603600637
2,1, 7,21, 0, 2, 0.00,60.00,SummerDesignDay
849,23.826338165593829
889,23.483899024942
929,24.000000000000005
969,25.16508873285703
1009,25.401540125281789
1049,23.69098282668821
1089,23.884187991459688
1129,24.660355323450163
1169,24.00000000000001
1209,21.667053739165323
1249,24.000000000000005
1289,21.606343776059679
1329,23.74111524489744
1369,24.3318629850572
1409,25.230401409429505
1449,24.74185218809988
1489,24.43881066234034
1529,24.263461880468303
1569,25.36915961221331
1609,25.078459642050288
2,1, 7,21, 0, 3, 0.00,10.00,SummerDesignDay
8,13.776521671948676
10,58198953.144496198
1723,0.0
1760,27220763.861141717
2,1, 7,21, 0, 3,10.00,20.00,SummerDesignDay
8,13.753085235778466
10,58198953.144496198
1723,0.0
1760,26678934.168381454
2,1, 7,21, 0, 3,20.00,30.00,SummerDesignDay
8,13.729636002354969
10,58198953.144496198
1723,0.0
1760,26138745.15565909
2,1, 7,21, 0, 3,30.00,40.00,SummerDesignDay
8,13.706147375533054
10,58198953.144496198
1723,0.0
1760,25597985.447121566
2,1, 7,21, 0, 3,40.00,50.00,SummerDesignDay
8,13.682651961920304
10,58198953.144496198
1723,0.0
1760,25056600.499653669
2,1, 7,21, 0, 3,50.00,60.00,SummerDesignDay
8,13.659136670643687
10,58198953.144496198
1723,0.0
1760,24471925.315786903
2,1, 7,21, 0, 3, 0.00,60.00,SummerDesignDay
849,23.58888235626057
889,23.066170669621316
929,24.000000000000005
969,24.973144576898588
1009,25.185830327889165
1049,23.5784364489336
1089,23.744656631312187
1129,24.488616441116876
1169,24.000000000000015
1209,21.346882040090564
1249,24.0
1289,21.28739820953187
1329,23.4770060643785
1369,24.22525482825847
1409,25.077811540655433
1449,24.617936239272269
1489,24.320094330994015
1529,24.16496793805669
1569,25.195863082113786
1609,25.11161890362079
2,1, 7,21, 0, 4, 0.00,10.00,SummerDesignDay
8,13.63560137410855
10,57088962.38316051
1723,0.0
1760,23883661.425319524
2,1, 7,21, 0, 4,10.00,20.00,SummerDesignDay
8,13.612040802606578
10,57088962.38316051
1723,0.0
1760,23300554.064215818
2,1, 7,21, 0, 4,20.00,30.00,SummerDesignDay
8,13.58846620506876
10,57088962.38316051
1723,0.0
1760,22716523.677660604
2,1, 7,21, 0, 4,30.00,40.00,SummerDesignDay
8,13.56487178447336
10,57088962.38316051
1723,0.0
1760,22132201.74970127
2,1, 7,21, 0, 4,40.00,50.00,SummerDesignDay
8,13.541257354069103
10,57088962.38316051
1723,0.0
1760,21549182.87302707
2,1, 7,21, 0, 4,50.00,60.00,SummerDesignDay
8,13.517617463812285
10,57088962.38316051
1723,0.0
1760,20967596.049726935
2,1, 7,21, 0, 4, 0.00,60.00,SummerDesignDay
849,23.31868540062011
889,22.809226853064926
929,24.000000000000015
969,24.858526606534566
1009,24.989629235688797
1049,23.482265073630388
1089,23.61861593406162
1129,24.32726184011302
1169,24.0
1209,21.08371763438404
1249,24.000000000000026
1289,21.041828568598395
1329,23.25323264562705
1369,24.135829671201816
1409,24.942071414545827
1449,24.501326105125345
1489,24.214673431785454
1529,24.08414409507654
1569,25.036565865410535
1609,24.868715066726609
2,1, 7,21, 0, 5, 0.00,10.00,SummerDesignDay
8,13.50185415824011
10,57088962.38316051
1723,0.0
1760,20503688.949766745
2,1, 7,21, 0, 5,10.00,20.00,SummerDesignDay
8,13.486076034032447
10,57088962.38316051
1723,0.0
1760,21708357.86880877
2,1, 7,21, 0, 5,20.00,30.00,SummerDesignDay
8,13.470289340350983
10,57088962.38316051
1723,0.0
1760,22881699.740937506
2,1, 7,21, 0, 5,30.00,40.00,SummerDesignDay
8,13.454493322631063
10,57088962.38316051
1723,0.0
1760,24216359.55158357
2,1, 7,21, 0, 5,40.00,50.00,SummerDesignDay
8,13.438688835118548
10,57088962.38316051
1723,0.0
1760,25782586.64171417
2,1, 7,21, 0, 5,50.00,60.00,SummerDesignDay
8,13.422888173889437
10,57088962.38316051
1723,0.0
1760,27385001.26212705
2,1, 7,21, 0, 5, 0.00,60.00,SummerDesignDay
849,23.146321981455175
889,22.794024634640704
929,24.000000000000005
969,24.75163994925141
1009,24.809197344958095
1049,23.39211592979908
1089,23.49571987695063
1129,24.239220772776688
1169,24.00000000000003
1209,20.855085136802985
1249,23.999999999999987
1289,20.82684833970242
1329,23.116575181900886
1369,24.04873664648744
1409,24.927398684513635
1449,24.497200837589216
1489,24.179851709870609
1529,24.010192640742934
1569,24.887323347514657
1609,24.75512853076565
2,1, 7,21, 0, 6, 0.00,10.00,SummerDesignDay
8,13.438688835118548
10,57088962.38316051
1723,0.0
1760,29429492.09912152
2,1, 7,21, 0, 6,10.00,20.00,SummerDesignDay
8,13.454493322631063
10,57088962.38316051
1723,0.0
1760,31513613.10480006
2,1, 7,21, 0, 6,20.00,30.00,SummerDesignDay
8,13.470289340350983
10,57088962.38316051
1723,0.0
1760,33624059.2867259
2,1, 7,21, 0, 6,30.00,40.00,SummerDesignDay
8,13.486076034032447
10,57088962.38316051
1723,0.0
1760,35672425.47074682
2,1, 7,21, 0, 6,40.00,50.00,SummerDesignDay
8,13.50185415824011
10,57088962.38316051
1723,0.0
1760,37694310.3995157
2,1, 7,21, 0, 6,50.00,60.00,SummerDesignDay
8,13.517617463812285
10,57088962.38316051
1723,0.0
1760,39652591.14862853
2,1, 7,21, 0, 6, 0.00,60.00,SummerDesignDay
849,23.28597536373898
889,23.254275306647548
929,24.00000000000001
969,24.679020171752673
1009,24.687265450945949
1049,23.336540211874025
1089,23.399481180706166
1129,24.268299681042703
1169,24.0
1209,20.788150183052144
1249,24.0
1289,20.775170257719109
1329,23.2870620923742
1369,23.98580714113382
1409,25.376670083915383
1449,24.935041485009675
1489,24.24710245112215
1529,23.962640887212144
1569,24.7943410051867
1609,24.70074870923806
2,1, 7,21, 0, 7, 0.00,10.00,SummerDesignDay
8,13.572736920571789
10,59863939.28649973
1723,0.0
1760,113751569.30332744
2,1, 7,21, 0, 7,10.00,20.00,SummerDesignDay
8,13.627748229152554
10,59863939.28649973
1723,0.0
1760,61323747.31185221
2,1, 7,21, 0, 7,20.00,30.00,SummerDesignDay
8,13.682651961920304
10,59863939.28649973
1723,0.0
1760,100950499.39599847
2,1, 7,21, 0, 7,30.00,40.00,SummerDesignDay
8,13.737448093244995
10,59863939.28649973
1723,0.0
1760,74137373.34413387
2,1, 7,21, 0, 7,40.00,50.00,SummerDesignDay
8,13.792137011831216
10,59863939.28649973
1723,0.0
1760,79908809.46313901
2,1, 7,21, 0, 7,50.00,60.00,SummerDesignDay
8,13.846719282840333
10,59863939.28649973
1723,0.0
1760,92982500.70504415
2,1, 7,21, 0, 7, 0.00,60.00,SummerDesignDay
849,23.753256587250893
889,23.736676999925604
929,24.00000000000001
969,24.67710283877368
1009,24.655133882944346
1049,23.352743944753855
1089,23.372058271335495
1129,24.230989907501298
1169,24.000000000000015
1209,21.00284261996958
1249,23.999999999999998
1289,21.03034114935537
1329,23.729344821445819
1369,23.982747637302525
1409,23.939563374201545
1449,23.95068600142218
1489,23.98411604540185
1529,23.974425553777338
1569,23.95715187071499
1609,24.716606148073497
2,1, 7,21, 0, 8, 0.00,10.00,SummerDesignDay
8,13.978831900527043
10,84095300.12806915
1723,0.0
1760,132334620.19398108
2,1, 7,21, 0, 8,10.00,20.00,SummerDesignDay
8,14.110321014287419
10,84095300.12806915
1723,0.0
1760,123997504.64542887
2,1, 7,21, 0, 8,20.00,30.00,SummerDesignDay
8,14.241191509616986
10,84095300.12806915
1723,0.0
1760,133863281.09323934
2,1, 7,21, 0, 8,30.00,40.00,SummerDesignDay
8,14.371447531304272
10,84095300.12806915
1723,0.0
1760,154545071.16684336
2,1, 7,21, 0, 8,40.00,50.00,SummerDesignDay
8,14.501093766564925
10,84095300.12806915
1723,0.0
1760,157614159.42716519
2,1, 7,21, 0, 8,50.00,60.00,SummerDesignDay
8,14.630134792273804
10,84095300.12806915
1723,0.0
1760,166828909.17664156
2,1, 7,21, 0, 8, 0.00,60.00,SummerDesignDay
849,23.99999973153182
889,23.999999380450335
929,24.0
969,24.775060278065188
1009,23.904551878952476
1049,23.47235628042704
1089,23.449213260709695
1129,23.967934539343305
1169,24.000000000000015
1209,21.71047018866857
1249,23.99999999999999
1289,21.804199691139464
1329,23.99999907107022
1369,23.999999294884959
1409,23.999999999995578
1449,23.999999999999074
1489,23.999999999999998
1529,23.99999918950407
1569,23.99999999999997
1609,24.830557354071673
2,1, 7,21, 0, 9, 0.00,10.00,SummerDesignDay
8,14.773641492809972
10,138457472.72382076
1723,0.0
1760,221505423.27414415
2,1, 7,21, 0, 9,10.00,20.00,SummerDesignDay
8,14.91640948124148
10,138457472.72382076
1723,0.0
1760,214623067.60834683
2,1, 7,21, 0, 9,20.00,30.00,SummerDesignDay
8,15.05843890714102
10,138457472.72382076
1723,0.0
1760,227859372.70766316
2,1, 7,21, 0, 9,30.00,40.00,SummerDesignDay
8,15.199735893563798
10,138457472.72382076
1723,0.0
1760,243697554.0257424
2,1, 7,21, 0, 9,40.00,50.00,SummerDesignDay
8,15.340306256439395
10,138457472.72382076
1723,0.0
1760,250591214.50832106
2,1, 7,21, 0, 9,50.00,60.00,SummerDesignDay
8,15.48015101768072
10,138457472.72382076
1723,0.0
1760,262432275.18856616
2,1, 7,21, 0, 9, 0.00,60.00,SummerDesignDay
849,24.000000000000019
889,24.000000000000019
929,24.00000000000001
969,24.98998213441098
1009,23.99999999888721
1049,23.872400654869684
1089,23.848955852155496
1129,23.999999999971477
1169,24.000000000000044
1209,22.832850506871947
1249,24.00000000000003
1289,23.0101805088586
1329,24.000000000000005
1369,24.00000000000001
1409,24.000000000000015
1449,24.000000000000033
1489,24.000000000000015
1529,24.000000000000015
1569,24.000000000000015
1609,23.87309214476083
2,1, 7,21, 0,10, 0.00,10.00,SummerDesignDay
8,15.60467292907716
10,156258949.58251656
1723,0.0
1760,280639666.5677254
2,1, 7,21, 0,10,10.00,20.00,SummerDesignDay
8,15.72862731650033
10,156258949.58251656
1723,0.0
1760,294901093.59582099
2,1, 7,21, 0,10,20.00,30.00,SummerDesignDay
8,15.852017409284228
10,156258949.58251656
1723,0.0
1760,308629359.5159124
2,1, 7,21, 0,10,30.00,40.00,SummerDesignDay
8,15.974848118364367
10,156258949.58251656
1723,0.0
1760,322428909.9513917
2,1, 7,21, 0,10,40.00,50.00,SummerDesignDay
8,16.097123145563505
10,156258949.58251656
1723,0.0
1760,335741002.9491149
2,1, 7,21, 0,10,50.00,60.00,SummerDesignDay
8,16.218846351168599
10,156258949.58251656
1723,0.0
1760,348922510.64099398
2,1, 7,21, 0,10, 0.00,60.00,SummerDesignDay
849,24.00000000000001
889,24.00000000000003
929,24.0
969,25.342941840693145
1009,24.0
1049,23.99999981362235
1089,23.999999699731018
1129,24.00000000000001
1169,24.000000000000019
1209,23.915618241582455
1249,23.99999999999999
1289,23.97868673021527
1329,24.000000000000047
1369,24.000000000000019
1409,24.000000000000033
1449,24.00000000000001
1489,24.000000000000033
1529,24.0
1569,24.000000000000015
1609,23.99999999939109
2,1, 7,21, 0,11, 0.00,10.00,SummerDesignDay
8,16.325793027093189
10,165324124.13902185
1723,0.0
1760,365098641.1157475
2,1, 7,21, 0,11,10.00,20.00,SummerDesignDay
8,16.432322158488288
10,165324124.13902185
1723,0.0
1760,376842031.97052636
2,1, 7,21, 0,11,20.00,30.00,SummerDesignDay
8,16.538424180249178
10,165324124.13902185
1723,0.0
1760,388096508.63343819
2,1, 7,21, 0,11,30.00,40.00,SummerDesignDay
8,16.644108396469087
10,165324124.13902185
1723,0.0
1760,399165588.3266495
2,1, 7,21, 0,11,40.00,50.00,SummerDesignDay
8,16.749376736593655
10,165324124.13902185
1723,0.0
1760,410121937.3931361
2,1, 7,21, 0,11,50.00,60.00,SummerDesignDay
8,16.854232613237156
10,165324124.13902185
1723,0.0
1760,421016584.4256274
2,1, 7,21, 0,11, 0.00,60.00,SummerDesignDay
849,24.00000000000004
889,24.000000000000015
929,24.000000000000033
969,25.702949655461496
1009,24.00000000000001
1049,23.99999999999999
1089,24.00000000000001
1129,24.000000000000026
1169,24.000000000000026
1209,23.999982232877497
1249,24.000000000000026
1289,23.999996719445379
1329,24.000000000000044
1369,24.000000000000005
1409,24.00000000000003
1449,24.0
1489,23.999999999999998
1529,24.0
1569,24.00000000000001
1609,24.0
2,1, 7,21, 0,12, 0.00,10.00,SummerDesignDay
8,16.92390823520069
10,166565363.8108345
1723,0.0
1760,429967629.9331936
2,1, 7,21, 0,12,10.00,20.00,SummerDesignDay
8,16.99340178950456
10,166565363.8108345
1723,0.0
1760,437965530.8800422
2,1, 7,21, 0,12,20.00,30.00,SummerDesignDay
8,17.06272006743463
10,166565363.8108345
1723,0.0
1760,446011416.5434023
2,1, 7,21, 0,12,30.00,40.00,SummerDesignDay
8,17.131853229172639
10,166565363.8108345
1723,0.0
1760,454051005.5044035
2,1, 7,21, 0,12,40.00,50.00,SummerDesignDay
8,17.200807172194087
10,166565363.8108345
1723,0.0
1760,462071950.5052863
2,1, 7,21, 0,12,50.00,60.00,SummerDesignDay
8,17.269582116758607
10,166565363.8108345
1723,0.0
1760,470007205.1481409
2,1, 7,21, 0,12, 0.00,60.00,SummerDesignDay
849,24.000000000000015
889,24.000000000000015
929,24.00000000000003
969,26.068991485671217
1009,24.000000000000026
1049,24.000000000000019
1089,24.00000000000001
1129,24.000000000000019
1169,24.000000000000047
1209,23.99999999746278
1249,24.00000000000001
1289,23.999999999510533
1329,24.0
1369,24.0
1409,24.0
1449,24.000000000000019
1489,24.00000000000003
1529,24.00000000000001
1569,24.000000000000047
1609,24.00000000000001
2,1, 7,21, 0,13, 0.00,10.00,SummerDesignDay
8,17.32447360221357
10,165455373.04949884
1723,0.0
1760,473756363.25595906
2,1, 7,21, 0,13,10.00,20.00,SummerDesignDay
8,17.379251291230806
10,165455373.04949884
1723,0.0
1760,479758509.84362867
2,1, 7,21, 0,13,20.00,30.00,SummerDesignDay
8,17.433921312061729
10,165455373.04949884
1723,0.0
1760,485571719.0645449
2,1, 7,21, 0,13,30.00,40.00,SummerDesignDay
8,17.488473222557489
10,165455373.04949884
1723,0.0
1760,491348662.38589206
2,1, 7,21, 0,13,40.00,50.00,SummerDesignDay
8,17.542913447755134
10,165455373.04949884
1723,0.0
1760,496995979.57150587
2,1, 7,21, 0,13,50.00,60.00,SummerDesignDay
8,17.59724609886134
10,165455373.04949884
1723,0.0
1760,502334485.79658368
2,1, 7,21, 0,13, 0.00,60.00,SummerDesignDay
849,24.0
889,24.000000000000015
929,23.999999999999987
969,26.41939811532306
1009,24.000000000000015
1049,24.00000000000001
1089,23.999999999999998
1129,24.000000000000015
1169,24.000000000000047
1209,23.999999999999646
1249,23.99999999999999
1289,23.99999999999993
1329,24.000000000000055
1369,24.000000000000005
1409,24.000000000000019
1449,24.00000000000001
1489,24.000000000000015
1529,24.0
1569,24.0
1609,24.00000000000001
2,1, 7,21, 0,14, 0.00,10.00,SummerDesignDay
8,17.6311450462694
10,165455373.04949884
1723,0.0
1760,505371879.2578647
2,1, 7,21, 0,14,10.00,20.00,SummerDesignDay
8,17.665000449016245
10,165455373.04949884
1723,0.0
1760,508483286.23242369
2,1, 7,21, 0,14,20.00,30.00,SummerDesignDay
8,17.698812743128934
10,165455373.04949884
1723,0.0
1760,511549021.81278738
2,1, 7,21, 0,14,30.00,40.00,SummerDesignDay
8,17.732582050940107
10,165455373.04949884
1723,0.0
1760,514302965.9367915
2,1, 7,21, 0,14,40.00,50.00,SummerDesignDay
8,17.766307345121004
10,165455373.04949884
1723,0.0
1760,517070133.014622
2,1, 7,21, 0,14,50.00,60.00,SummerDesignDay
8,17.79999023167558
10,165455373.04949884
1723,0.0
1760,519846615.0084514
2,1, 7,21, 0,14, 0.00,60.00,SummerDesignDay
849,24.0
889,24.000000000000058
929,24.00000000000004
969,26.698111542774386
1009,24.00000000000001
1049,24.0
1089,24.0
1129,24.000000000000005
1169,24.000000000000026
1209,24.00000000000001
1249,24.000000000000026
1289,24.0
1329,23.999999999999998
1369,24.000000000000019
1409,24.000000000000019
1449,24.000000000000026
1489,24.000000000000019
1529,24.000000000000019
1569,24.000000000000026
1609,24.000000000000055
2,1, 7,21, 0,15, 0.00,10.00,SummerDesignDay
8,17.79999023167558
10,165455373.04949884
1723,0.0
1760,588294308.9980577
2,1, 7,21, 0,15,10.00,20.00,SummerDesignDay
8,17.79999023167558
10,165455373.04949884
1723,0.0
1760,535591343.8915166
2,1, 7,21, 0,15,20.00,30.00,SummerDesignDay
8,17.79999023167558
10,165455373.04949884
1723,0.0
1760,563799287.4443
2,1, 7,21, 0,15,30.00,40.00,SummerDesignDay
8,17.79999023167558
10,165455373.04949884
1723,0.0
1760,535906484.2074948
2,1, 7,21, 0,15,40.00,50.00,SummerDesignDay
8,17.79999023167558
10,165455373.04949884
1723,0.0
1760,538465146.6883147
2,1, 7,21, 0,15,50.00,60.00,SummerDesignDay
8,17.79999023167558
10,165455373.04949884
1723,0.0
1760,538102312.7381389
2,1, 7,21, 0,15, 0.00,60.00,SummerDesignDay
849,24.0
889,24.00000000000003
929,24.000000000000019
969,23.87280302215245
1009,24.000000000000005
1049,24.000000000000005
1089,24.000000000000015
1129,24.00000000000001
1169,24.000000000000026
1209,24.0
1249,24.000000000000015
1289,24.0
1329,24.000000000000047
1369,24.000000000000026
1409,24.00000000000001
1449,24.000000000000015
1489,24.000000000000019
1529,24.0
1569,24.000000000000058
1609,24.00000000000001
2,1, 7,21, 0,16, 0.00,10.00,SummerDesignDay
8,17.759562446305357
10,170450331.47550944
1723,0.0
1760,536893135.1627286
2,1, 7,21, 0,16,10.00,20.00,SummerDesignDay
8,17.71907809634183
10,170450331.47550944
1723,0.0
1760,533076461.04038408
2,1, 7,21, 0,16,20.00,30.00,SummerDesignDay
8,17.67853788661001
10,170450331.47550944
1723,0.0
1760,528701923.3868516
2,1, 7,21, 0,16,30.00,40.00,SummerDesignDay
8,17.63791796367351
10,170450331.47550944
1723,0.0
1760,523968722.45558437
2,1, 7,21, 0,16,40.00,50.00,SummerDesignDay
8,17.59724609886134
10,170450331.47550944
1723,0.0
1760,518953302.97869166
2,1, 7,21, 0,16,50.00,60.00,SummerDesignDay
8,17.55650676726033
10,170450331.47550944
1723,0.0
1760,513619190.3077117
2,1, 7,21, 0,16, 0.00,60.00,SummerDesignDay
849,23.99999999999999
889,24.00000000000001
929,24.000000000000044
969,24.0
1009,24.000000000000033
1049,24.000000000000005
1089,24.00000000000001
1129,24.000000000000019
1169,24.000000000000019
1209,24.000000000000015
1249,24.00000000000001
1289,24.0
1329,24.000000000000026
1369,24.000000000000015
1409,24.000000000000019
1449,23.99999999999999
1489,24.000000000000019
1529,24.000000000000005
1569,24.00000000000004
1609,23.999999999999984
2,1, 7,21, 0,17, 0.00,10.00,SummerDesignDay
8,17.50209486331892
10,170450331.47550944
1723,0.0
1760,506567915.35662838
2,1, 7,21, 0,17,10.00,20.00,SummerDesignDay
8,17.447570789624618
10,170450331.47550944
1723,0.0
1760,499529873.0757937
2,1, 7,21, 0,17,20.00,30.00,SummerDesignDay
8,17.392929544208135
10,170450331.47550944
1723,0.0
1760,492334291.2440612
2,1, 7,21, 0,17,30.00,40.00,SummerDesignDay
8,17.33818013976614
10,170450331.47550944
1723,0.0
1760,484995180.49422517
2,1, 7,21, 0,17,40.00,50.00,SummerDesignDay
8,17.283317298559309
10,170450331.47550944
1723,0.0
1760,477514432.5430599
2,1, 7,21, 0,17,50.00,60.00,SummerDesignDay
8,17.22833552437677
10,170450331.47550944
1723,0.0
1760,469885296.4213222
2,1, 7,21, 0,17, 0.00,60.00,SummerDesignDay
849,24.00000000000003
889,23.99999999999999
929,24.000000000000019
969,24.000000000000005
1009,24.000000000000015
1049,24.00000000000001
1089,24.00000000000001
1129,24.000000000000015
1169,24.000000000000058
1209,24.000000000000019
1249,24.000000000000019
1289,24.00000000000001
1329,24.000000000000019
1369,24.000000000000026
1409,24.0
1449,24.000000000000019
1489,24.00000000000001
1529,24.000000000000026
1569,24.0
1609,24.00000000000001
2,1, 7,21, 0,18, 0.00,10.00,SummerDesignDay
8,17.159453019160176
10,162974768.68738643
1723,0.0
1760,456249568.21188166
2,1, 7,21, 0,18,10.00,20.00,SummerDesignDay
8,17.090391773337136
10,162974768.68738643
1723,0.0
1760,446374598.4573591
2,1, 7,21, 0,18,20.00,30.00,SummerDesignDay
8,17.021151077964786
10,162974768.68738643
1723,0.0
1760,436470161.4408547
2,1, 7,21, 0,18,30.00,40.00,SummerDesignDay
8,16.951729380464653
10,162974768.68738643
1723,0.0
1760,426624372.32808938
2,1, 7,21, 0,18,40.00,50.00,SummerDesignDay
8,16.882126503829249
10,162974768.68738643
1723,0.0
1760,416850001.44051918
2,1, 7,21, 0,18,50.00,60.00,SummerDesignDay
8,16.812341807494034
10,162974768.68738643
1723,0.0
1760,407095683.5750815
2,1, 7,21, 0,18, 0.00,60.00,SummerDesignDay
849,24.000000000000015
889,24.0
929,24.00000000000004
969,24.000000000000026
1009,24.0
1049,24.000000000000005
1089,24.000000000000015
1129,24.00000000000001
1169,24.00000000000003
1209,24.000000000000026
1249,24.000000000000005
1289,23.999999999999987
1329,24.000000000000033
1369,24.000000000000015
1409,24.00000000000003
1449,24.0
1489,24.000000000000019
1529,24.00000000000001
1569,24.0
1609,24.00000000000001
2,1, 7,21, 0,19, 0.00,10.00,SummerDesignDay
8,16.707321072823203
10,123793219.75629126
1723,0.0
1760,373086043.226918
2,1, 7,21, 0,19,10.00,20.00,SummerDesignDay
8,16.601881826644556
10,123793219.75629126
1723,0.0
1760,358745539.2237554
2,1, 7,21, 0,19,20.00,30.00,SummerDesignDay
8,16.496030555252849
10,123793219.75629126
1723,0.0
1760,345653702.88817527
2,1, 7,21, 0,19,30.00,40.00,SummerDesignDay
8,16.389760181474104
10,123793219.75629126
1723,0.0
1760,332733231.53220167
2,1, 7,21, 0,19,40.00,50.00,SummerDesignDay
8,16.283067654262039
10,123793219.75629126
1723,0.0
1760,320066796.35186347
2,1, 7,21, 0,19,50.00,60.00,SummerDesignDay
8,16.17595057957811
10,123793219.75629126
1723,0.0
1760,307579511.02426597
2,1, 7,21, 0,19, 0.00,60.00,SummerDesignDay
849,24.000000000000019
889,24.00000000000001
929,24.00000000000003
969,24.000000000000019
1009,24.000000000000005
1049,24.000000000000005
1089,24.00000000000001
1129,24.0
1169,24.000000000000055
1209,24.0
1249,23.999999999999976
1289,24.000000000000019
1329,24.00000000000003
1369,24.000000000000015
1409,24.000000000000026
1449,24.000000000000026
1489,24.00000000000001
1529,24.0
1569,24.00000000000003
1609,24.00000000000001
2,1, 7,21, 0,20, 0.00,10.00,SummerDesignDay
8,16.097123145563505
10,108485097.1386944
1723,0.0
1760,254288062.70054854
2,1, 7,21, 0,20,10.00,20.00,SummerDesignDay
8,16.018070242471564
10,108485097.1386944
1723,0.0
1760,245430103.4964518
2,1, 7,21, 0,20,20.00,30.00,SummerDesignDay
8,15.938779752340516
10,108485097.1386944
1723,0.0
1760,236167484.48807986
2,1, 7,21, 0,20,30.00,40.00,SummerDesignDay
8,15.85926152575189
10,108485097.1386944
1723,0.0
1760,226875413.4503685
2,1, 7,21, 0,20,40.00,50.00,SummerDesignDay
8,15.779503718563929
10,108485097.1386944
1723,0.0
1760,217434520.9811921
2,1, 7,21, 0,20,50.00,60.00,SummerDesignDay
8,15.699515709672767
10,108485097.1386944
1723,0.0
1760,207721845.47015227
2,1, 7,21, 0,20, 0.00,60.00,SummerDesignDay
849,24.00000000000001
889,24.00000000000001
929,24.00000000000003
969,24.000000000000015
1009,25.972975229989019
1049,24.294208000595139
1089,24.396966943500158
1129,25.073644321890396
1169,24.00000000000001
1209,23.999999999999998
1249,24.000000000000005
1289,23.99999999999999
1329,24.000000000000005
1369,24.000000000000015
1409,24.000000000000005
1449,24.000000000000005
1489,24.0
1529,24.00000000000001
1569,24.000000000000015
1609,24.000000000000005
2,1, 7,21, 0,21, 0.00,10.00,SummerDesignDay
8,15.63389147320404
10,110705078.66136578
1723,0.0
1760,200219524.43237747
2,1, 7,21, 0,21,10.00,20.00,SummerDesignDay
8,15.56810827419793
10,110705078.66136578
1723,0.0
1760,191256934.92500244
2,1, 7,21, 0,21,20.00,30.00,SummerDesignDay
8,15.502170882753524
10,110705078.66136578
1723,0.0
1760,182049813.060586
2,1, 7,21, 0,21,30.00,40.00,SummerDesignDay
8,15.436068032613852
10,110705078.66136578
1723,0.0
1760,172928218.77269987
2,1, 7,21, 0,21,40.00,50.00,SummerDesignDay
8,15.369804371206009
10,110705078.66136578
1723,0.0
1760,165753080.38845528
2,1, 7,21, 0,21,50.00,60.00,SummerDesignDay
8,15.303384603594449
10,110705078.66136578
1723,0.0
1760,159836235.30020914
2,1, 7,21, 0,21, 0.00,60.00,SummerDesignDay
849,24.0
889,23.99999999999999
929,24.00000000000003
969,24.00000000000001