Program Version,EnergyPlus, Version 8.9.0-eba93e8e1b, YMD=2019.04.04 18:00
1,5,Environment Title[],Latitude[deg],Longitude[deg],Time Zone[],Elevation[m]
2,8,Day of Simulation[],Month[],Day of Month[],DST Indicator[1=yes 0=no],Hour[],StartMinute[],EndMinute[],DayType
3,5,Cumulative Day of Simulation[],Month[],Day of Month[],DST Indicator[1=yes 0=no],DayType  ! When Daily Report Variables Requested
4,2,Cumulative Days of Simulation[],Month[]  ! When Monthly Report Variables Requested
5,1,Cumulative Days of Simulation[] ! When Run Period Report Variables Requested
6,1,Calendar Year of Simulation[] ! When Annual Report Variables Requested
7,9,Environment,Site Outdoor Air Drybulb Temperature [C] !Monthly [Value,Min,Day,Hour,Minute,Max,Day,Hour,Minute]
8,1,Environment,Site Outdoor Air Wetbulb Temperature [C] !TimeStep
555,1,SP-FIRE STATION SLEEPING QUARTERS-SPACE FUNCTION SYS-3 FLR-1 SCH-G HPLCMT-CORE ZN,Zone Air Temperature [C] !Hourly
556,7,SP-FIRE STATION SLEEPING QUARTERS-SPACE FUNCTION SYS-3 FLR-1 SCH-G HPLCMT-CORE ZN,Zone Air Relative Humidity [%] !Daily [Value,Min,Hour,Minute,Max,Hour,Minute]
595,1,SP-GYMNASIUM/FITNESS CENTRE EXERCISE AREA-SPACE FUNCTION SYS-3 FLR-1 SCH-B HPLCMT-SOUTH ZN,Zone Air Temperature [C] !Hourly
596,7,SP-GYMNASIUM/FITNESS CENTRE EXERCISE AREA-SPACE FUNCTION SYS-3 FLR-1 SCH-B HPLCMT-SOUTH ZN,Zone Air Relative Humidity [%] !Daily [Value,Min,Hour,Minute,Max,Hour,Minute]
635,1,SP-GYMNASIUM/FITNESS CENTRE PLAYING AREA-SPACE FUNCTION SYS-3 FLR-1 SCH-B HPLCMT-EAST ZN,Zone Air Temperature [C] !Hourly
636,7,SP-GYMNASIUM/FITNESS CENTRE PLAYING AREA-SPACE FUNCTION SYS-3 FLR-1 SCH-B HPLCMT-EAST ZN,Zone Air Relative Humidity [%] !Daily [Value,Min,Hour,Minute,Max,Hour,Minute]
675,1,SP-HEALTH CARE FACILITY EXAM/TREATMENT ROOM-SPACE FUNCTION SYS-3 FLR-1 SCH-C HPLCMT-NORTH ZN,Zone Air Temperature [C] !Hourly
676,7,SP-HEALTH CARE FACILITY EXAM/TREATMENT ROOM-SPACE FUNCTION SYS-3 FLR-1 SCH-C HPLCMT-NORTH ZN,Zone Air Relative Humidity [%] !Daily [Value,Min,Hour,Minute,Max,Hour,Minute]
715,1,SP-HEALTH CARE FACILITY IMAGING ROOM-SPACE FUNCTION SYS-3 FLR-1 SCH-H HPLCMT-WEST ZN,Zone Air Temperature [C] !Hourly
716,7,SP-HEALTH CARE FACILITY IMAGING ROOM-SPACE FUNCTION SYS-3 FLR-1 SCH-H HPLCMT-WEST ZN,Zone Air Relative Humidity [%] !Daily [Value,Min,Hour,Minute,Max,Hour,Minute]
10,1,Electricity:Facility [J] !TimeStep
321,1,Gas:Facility [J] !TimeStep
End of Data Dictionary
1,FORT MCMURRAY AP ANN CLG .4% CONDNS DB=>MWB,  56.65,-111.22,  -7.00, 369.10
2,1, 7,21, 0, 1, 0.00,10.00,SummerDesignDay
8,14.218136923962174
10,65062477.56306641
321,45595839.39073242
2,1, 7,21, 0, 1,10.00,20.00,SummerDesignDay
8,14.171982153293495
10,64382382.64984049
321,45072378.33911327
2,1, 7,21, 0, 1,20.00,30.00,SummerDesignDay
8,14.125744780286427
10,64102350.48198341
321,46018785.01799237
2,1, 7,21, 0, 1,30.00,40.00,SummerDesignDay
8,14.079436086331978
10,63816466.80405259
321,46336402.31452619
2,1, 7,21, 0, 1,40.00,50.00,SummerDesignDay
8,14.033050387896898
10,63530981.34339942
321,47450524.35808787
2,1, 7,21, 0, 1,50.00,60.00,SummerDesignDay
8,13.986581233564835
10,63246163.90326075
321,48412614.70172052
2,1, 7,21, 0, 1, 0.00,60.00,SummerDesignDay
555,23.42967181377466
595,22.038831244302334
635,23.996572631648488
675,21.157296104198847
715,23.9983395067178
2,1, 7,21, 0, 2, 0.00,10.00,SummerDesignDay
8,13.95555882260429
10,49285894.17212039
321,53480497.33420078
2,1, 7,21, 0, 2,10.00,20.00,SummerDesignDay
8,13.924507755336454
10,49161806.745929699
321,59690512.03096823
2,1, 7,21, 0, 2,20.00,30.00,SummerDesignDay
8,13.893416042989206
10,49034419.84400898
321,59703241.46916448
2,1, 7,21, 0, 2,30.00,40.00,SummerDesignDay
8,13.862289589689029
10,48907615.695428688
321,40443518.98036613
2,1, 7,21, 0, 2,40.00,50.00,SummerDesignDay
8,13.831134407608739
10,48784060.88463229
321,61854512.78317784
2,1, 7,21, 0, 2,50.00,60.00,SummerDesignDay
8,13.799938415548118
10,48658834.19845656
321,62572074.704922679
2,1, 7,21, 0, 2, 0.00,60.00,SummerDesignDay
555,22.754823495031645
595,22.000005453929547
635,23.3252249710049
675,20.688026704670695
715,23.998366275565038
2,1, 7,21, 0, 3, 0.00,10.00,SummerDesignDay
8,13.776521671948676
10,38062884.59042312
321,12000.0
2,1, 7,21, 0, 3,10.00,20.00,SummerDesignDay
8,13.753085235778466
10,37955221.999275308
321,18583412.977035345
2,1, 7,21, 0, 3,20.00,30.00,SummerDesignDay
8,13.729636002354969
10,37847840.215108778
321,18530388.546429758
2,1, 7,21, 0, 3,30.00,40.00,SummerDesignDay
8,13.706147375533054
10,37726147.061567198
321,12000.0
2,1, 7,21, 0, 3,40.00,50.00,SummerDesignDay
8,13.682651961920304
10,37605120.48646477
321,18562997.064718728
2,1, 7,21, 0, 3,50.00,60.00,SummerDesignDay
8,13.659136670643687
10,37491331.4327151
321,7965828.281531844
2,1, 7,21, 0, 3, 0.00,60.00,SummerDesignDay
555,22.29995159716376
595,19.926145889781048
635,21.704724280086848
675,20.342136938961386
715,23.99927845035936
2,1, 7,21, 0, 4, 0.00,10.00,SummerDesignDay
8,13.63560137410855
10,37371429.74692182
321,10555439.019497384
2,1, 7,21, 0, 4,10.00,20.00,SummerDesignDay
8,13.612040802606578
10,37256201.652005348
321,18502175.697799207
2,1, 7,21, 0, 4,20.00,30.00,SummerDesignDay
8,13.58846620506876
10,37141368.68479415
321,12000.0
2,1, 7,21, 0, 4,30.00,40.00,SummerDesignDay
8,13.56487178447336
10,37028563.73961146
321,18468787.875563146
2,1, 7,21, 0, 4,40.00,50.00,SummerDesignDay
8,13.541257354069103
10,36920714.70144779
321,18532756.418753406
2,1, 7,21, 0, 4,50.00,60.00,SummerDesignDay
8,13.517617463812285
10,36807750.813627269
321,12000.0
2,1, 7,21, 0, 4, 0.00,60.00,SummerDesignDay
555,21.833249005087479
595,18.576282188024306
635,20.14288100558262
675,19.956607994127219
715,23.99844100104917
2,1, 7,21, 0, 5, 0.00,10.00,SummerDesignDay
8,13.50185415824011
10,36732536.092308487
321,18488063.95653811
2,1, 7,21, 0, 5,10.00,20.00,SummerDesignDay
8,13.486076034032447
10,36654043.577729027
321,12000.0
2,1, 7,21, 0, 5,20.00,30.00,SummerDesignDay
8,13.470289340350983
10,36574701.18441123
321,18452476.47762864
2,1, 7,21, 0, 5,30.00,40.00,SummerDesignDay
8,13.454493322631063
10,36505034.247934188
321,18508751.069150974
2,1, 7,21, 0, 5,40.00,50.00,SummerDesignDay
8,13.438688835118548
10,36425292.88468702
321,12000.0
2,1, 7,21, 0, 5,50.00,60.00,SummerDesignDay
8,13.422888173889437
10,36354065.67421452
321,18473842.411481274
2,1, 7,21, 0, 5, 0.00,60.00,SummerDesignDay
555,21.48961810965656
595,18.188190316631649
635,19.554638433525214
675,19.654910525877093
715,23.998453745416219
2,1, 7,21, 0, 6, 0.00,10.00,SummerDesignDay
8,13.438688835118548
10,36402548.49662462
321,18539970.32381616
2,1, 7,21, 0, 6,10.00,20.00,SummerDesignDay
8,13.454493322631063
10,36449102.87818008
321,12000.0
2,1, 7,21, 0, 6,20.00,30.00,SummerDesignDay
8,13.470289340350983
10,36501837.13790521
321,18492546.442461038
2,1, 7,21, 0, 6,30.00,40.00,SummerDesignDay
8,13.486076034032447
10,36551503.08228816
321,12000.0
2,1, 7,21, 0, 6,40.00,50.00,SummerDesignDay
8,13.50185415824011
10,36601327.79261436
321,18458332.319683915
2,1, 7,21, 0, 6,50.00,60.00,SummerDesignDay
8,13.517617463812285
10,36659484.351534318
321,18517314.62815034
2,1, 7,21, 0, 6, 0.00,60.00,SummerDesignDay
555,21.306294508533019
595,18.088847348714677
635,19.322684412838
675,19.50534267697307
715,23.9983683960246
2,1, 7,21, 0, 7, 0.00,10.00,SummerDesignDay
8,13.572736920571789
10,37575128.84204567
321,19094464.481852015
2,1, 7,21, 0, 7,10.00,20.00,SummerDesignDay
8,13.627748229152554
10,37775001.07545048
321,10826599.95861631
2,1, 7,21, 0, 7,20.00,30.00,SummerDesignDay
8,13.682651961920304
10,37973118.89977045
321,8330832.442715984
2,1, 7,21, 0, 7,30.00,40.00,SummerDesignDay
8,13.737448093244995
10,38171186.93621499
321,19138008.412901809
2,1, 7,21, 0, 7,40.00,50.00,SummerDesignDay
8,13.792137011831216
10,38367981.242838639
321,19138205.866854125
2,1, 7,21, 0, 7,50.00,60.00,SummerDesignDay
8,13.846719282840333
10,38563578.54585316
321,19140092.708894
2,1, 7,21, 0, 7, 0.00,60.00,SummerDesignDay
555,21.506074956424518
595,18.426636022545993
635,19.437100235991229
675,19.64341747686526
715,23.998218592984043
2,1, 7,21, 0, 8, 0.00,10.00,SummerDesignDay
8,13.978831900527043
10,42349575.44512321
321,46289300.60191691
2,1, 7,21, 0, 8,10.00,20.00,SummerDesignDay
8,14.110321014287419
10,42788268.19674938
321,44951871.564288649
2,1, 7,21, 0, 8,20.00,30.00,SummerDesignDay
8,14.241191509616986
10,43220708.8904666
321,44576521.7800473
2,1, 7,21, 0, 8,30.00,40.00,SummerDesignDay
8,14.371447531304272
10,43641778.656949717
321,44577149.680572468
2,1, 7,21, 0, 8,40.00,50.00,SummerDesignDay
8,14.501093766564925
10,44057966.954144489
321,44578987.28188197
2,1, 7,21, 0, 8,50.00,60.00,SummerDesignDay
8,14.630134792273804
10,44450770.54447705
321,36131046.07587369
2,1, 7,21, 0, 8, 0.00,60.00,SummerDesignDay
555,22.598493539497345
595,19.45564725802436
635,20.038136006704194
675,20.297192783758065
715,23.998494125492078
2,1, 7,21, 0, 9, 0.00,10.00,SummerDesignDay
8,14.773641492809972
10,57311353.20854222
321,47580358.69927043
2,1, 7,21, 0, 9,10.00,20.00,SummerDesignDay
8,14.91640948124148
10,57660479.55695135
321,43504090.628437917
2,1, 7,21, 0, 9,20.00,30.00,SummerDesignDay
8,15.05843890714102
10,58089391.93656121
321,43468683.872858148
2,1, 7,21, 0, 9,30.00,40.00,SummerDesignDay
8,15.199735893563798
10,58498568.62365891
321,43498964.73906425
2,1, 7,21, 0, 9,40.00,50.00,SummerDesignDay
8,15.340306256439395
10,61466257.85057272
321,25552705.441408326
2,1, 7,21, 0, 9,50.00,60.00,SummerDesignDay
8,15.48015101768072
10,62626792.32466546
321,39667405.199124637
2,1, 7,21, 0, 9, 0.00,60.00,SummerDesignDay
555,23.775868507149427
595,21.184310724581658
635,21.22226552421969
675,23.349579776051418
715,23.999087271636353
2,1, 7,21, 0,10, 0.00,10.00,SummerDesignDay
8,15.60467292907716
10,83869113.5682304
321,76069659.03532088
2,1, 7,21, 0,10,10.00,20.00,SummerDesignDay
8,15.72862731650033
10,84588056.2062922
321,56152991.59969108
2,1, 7,21, 0,10,20.00,30.00,SummerDesignDay
8,15.852017409284228
10,85683258.03722093
321,80121506.50469183
2,1, 7,21, 0,10,30.00,40.00,SummerDesignDay
8,15.974848118364367
10,87995919.7597197
321,53403687.272706348
2,1, 7,21, 0,10,40.00,50.00,SummerDesignDay
8,16.097123145563505
10,90347388.51787408
321,80154744.20401506
2,1, 7,21, 0,10,50.00,60.00,SummerDesignDay
8,16.218846351168599
10,94556346.2587334
321,53404680.23922391
2,1, 7,21, 0,10, 0.00,60.00,SummerDesignDay
555,23.999394219569554
595,23.48526577706259
635,23.507718259722883
675,23.999503347835004
715,23.9988939681561
2,1, 7,21, 0,11, 0.00,10.00,SummerDesignDay
8,16.325793027093189
10,107331324.74070284
321,78222028.39442808
2,1, 7,21, 0,11,10.00,20.00,SummerDesignDay
8,16.432322158488288
10,109178604.42571615
321,51974474.40622317
2,1, 7,21, 0,11,20.00,30.00,SummerDesignDay
8,16.538424180249178
10,110553910.4744707
321,76292602.57324222
2,1, 7,21, 0,11,30.00,40.00,SummerDesignDay
8,16.644108396469087
10,111905999.72585269
321,53697416.275431249
2,1, 7,21, 0,11,40.00,50.00,SummerDesignDay
8,16.749376736593655
10,113199695.91603108
321,70024878.51837176
2,1, 7,21, 0,11,50.00,60.00,SummerDesignDay
8,16.854232613237156
10,114429610.05414425
321,59965835.57539954
2,1, 7,21, 0,11, 0.00,60.00,SummerDesignDay
555,23.999045397464255
595,23.999145906997034
635,23.998143110369523
675,23.99925634807103
715,23.998386949312189
2,1, 7,21, 0,12, 0.00,10.00,SummerDesignDay
8,16.92390823520069
10,124088306.11959763
321,44454093.42072069
2,1, 7,21, 0,12,10.00,20.00,SummerDesignDay
8,16.99340178950456
10,124298836.20311213
321,43764807.28945378
2,1, 7,21, 0,12,20.00,30.00,SummerDesignDay
8,17.06272006743463
10,125092988.05291297
321,37417382.98218063
2,1, 7,21, 0,12,30.00,40.00,SummerDesignDay
8,17.131853229172639
10,125900499.83931457
321,28224544.304849168
2,1, 7,21, 0,12,40.00,50.00,SummerDesignDay
8,17.200807172194087
10,126679244.58132637
321,43742337.84993515
2,1, 7,21, 0,12,50.00,60.00,SummerDesignDay
8,17.269582116758607
10,127448310.39344774
321,43748702.07689242
2,1, 7,21, 0,12, 0.00,60.00,SummerDesignDay
555,23.999323033453665
595,23.99888693783524
635,23.996456777041034
675,23.99936210656912
715,23.998484552889367
2,1, 7,21, 0,13, 0.00,10.00,SummerDesignDay
8,17.32447360221357
10,131349881.63135544
321,46011071.09601358
2,1, 7,21, 0,13,10.00,20.00,SummerDesignDay
8,17.379251291230806
10,132179693.32860242
321,46282605.73609408
2,1, 7,21, 0,13,20.00,30.00,SummerDesignDay
8,17.433921312061729
10,132740126.9166445
321,46288944.21046977
2,1, 7,21, 0,13,30.00,40.00,SummerDesignDay
8,17.488473222557489
10,133431985.37812227
321,46295275.516049098
2,1, 7,21, 0,13,40.00,50.00,SummerDesignDay
8,17.542913447755134
10,134116188.85041416
321,46301564.38599066
2,1, 7,21, 0,13,50.00,60.00,SummerDesignDay
8,17.59724609886134
10,134792291.2544071
321,48709394.193676639
2,1, 7,21, 0,13, 0.00,60.00,SummerDesignDay
555,23.99949975344634
595,23.997980687190368
635,24.097736034351745
675,23.99894993823631
715,23.99835710964234
2,1, 7,21, 0,14, 0.00,10.00,SummerDesignDay
8,17.6311450462694
10,134828646.72060884
321,66423963.26680335
2,1, 7,21, 0,14,10.00,20.00,SummerDesignDay
8,17.665000449016245
10,135321706.89171473
321,51121008.98572822
2,1, 7,21, 0,14,20.00,30.00,SummerDesignDay
8,17.698812743128934
10,135741821.6589196
321,48113064.31681899
2,1, 7,21, 0,14,30.00,40.00,SummerDesignDay
8,17.732582050940107
10,136123880.210238
321,48149327.28646244
2,1, 7,21, 0,14,40.00,50.00,SummerDesignDay
8,17.766307345121004
10,136505100.28403379
321,61194490.60773506
2,1, 7,21, 0,14,50.00,60.00,SummerDesignDay
8,17.79999023167558
10,136887643.41676588
321,59152127.319529239
2,1, 7,21, 0,14, 0.00,60.00,SummerDesignDay
555,23.99956565911215
595,23.997607300466183
635,24.184439619043986
675,24.008635187445255
715,23.998203509549126
2,1, 7,21, 0,15, 0.00,10.00,SummerDesignDay
8,17.79999023167558
10,135698747.16154713
321,49422173.82353255
2,1, 7,21, 0,15,10.00,20.00,SummerDesignDay
8,17.79999023167558
10,134708366.9706614
321,52953199.57467481
2,1, 7,21, 0,15,20.00,30.00,SummerDesignDay
8,17.79999023167558
10,135030104.06368665
321,71087538.51919614
2,1, 7,21, 0,15,30.00,40.00,SummerDesignDay
8,17.79999023167558
10,134968543.82399825
321,49570511.034805569
2,1, 7,21, 0,15,40.00,50.00,SummerDesignDay
8,17.79999023167558
10,134935286.5612596
321,51465817.575951579
2,1, 7,21, 0,15,50.00,60.00,SummerDesignDay
8,17.79999023167558
10,134912100.24103443
321,72579566.74710886
2,1, 7,21, 0,15, 0.00,60.00,SummerDesignDay
555,23.999528904820964
595,23.998292720290605
635,24.002184901935185
675,24.07004981508216
715,23.998176906725278
2,1, 7,21, 0,16, 0.00,10.00,SummerDesignDay
8,17.759562446305357
10,132072536.84300338
321,48630028.11848609
2,1, 7,21, 0,16,10.00,20.00,SummerDesignDay
8,17.71907809634183
10,131382548.97412128
321,48567170.45889564
2,1, 7,21, 0,16,20.00,30.00,SummerDesignDay
8,17.67853788661001
10,130862582.47004421
321,58632129.98112312
2,1, 7,21, 0,16,30.00,40.00,SummerDesignDay
8,17.63791796367351
10,130330756.49267407
321,62802032.13807241
2,1, 7,21, 0,16,40.00,50.00,SummerDesignDay
8,17.59724609886134
10,129811274.55711185
321,48531878.17843568
2,1, 7,21, 0,16,50.00,60.00,SummerDesignDay
8,17.55650676726033
10,129173704.21857675
321,48572902.7085096
2,1, 7,21, 0,16, 0.00,60.00,SummerDesignDay
555,23.99929321473014
595,23.99917311216511
635,23.996885377106243
675,24.036071735373523
715,23.998175696232634
2,1, 7,21, 0,17, 0.00,10.00,SummerDesignDay
8,17.50209486331892
10,129005474.96689859
321,46479266.69725402
2,1, 7,21, 0,17,10.00,20.00,SummerDesignDay
8,17.447570789624618
10,128073344.58156668
321,50568461.61830549
2,1, 7,21, 0,17,20.00,30.00,SummerDesignDay
8,17.392929544208135
10,127435442.22269543
321,52788892.868599038
2,1, 7,21, 0,17,30.00,40.00,SummerDesignDay
8,17.33818013976614
10,126851516.84225379
321,52759014.70422172
2,1, 7,21, 0,17,40.00,50.00,SummerDesignDay
8,17.283317298559309
10,126265177.68217558
321,51939195.84811381
2,1, 7,21, 0,17,50.00,60.00,SummerDesignDay
8,17.22833552437677
10,125676458.5567232
321,46200285.051346618
2,1, 7,21, 0,17, 0.00,60.00,SummerDesignDay
555,23.99902599053785
595,23.999570756827138
635,23.997874672253006
675,23.997961851672767
715,23.998168953764464
2,1, 7,21, 0,18, 0.00,10.00,SummerDesignDay
8,17.159453019160176
10,124520567.91007836
321,48255674.97266324
2,1, 7,21, 0,18,10.00,20.00,SummerDesignDay
8,17.090391773337136
10,124056212.65731329
321,48530716.2939987
2,1, 7,21, 0,18,20.00,30.00,SummerDesignDay
8,17.021151077964786
10,123310540.27655117
321,57839703.88731073
2,1, 7,21, 0,18,30.00,40.00,SummerDesignDay
8,16.951729380464653
10,122582282.58660065
321,63506232.47740052
2,1, 7,21, 0,18,40.00,50.00,SummerDesignDay
8,16.882126503829249
10,121865441.81541078
321,48494153.672902029
2,1, 7,21, 0,18,50.00,60.00,SummerDesignDay
8,16.812341807494034
10,121134102.68204716
321,48533997.209693517
2,1, 7,21, 0,18, 0.00,60.00,SummerDesignDay
555,23.998625912099205
595,23.99948469028473
635,23.997921916991769
675,23.998175527942665
715,23.998048504006805
2,1, 7,21, 0,19, 0.00,10.00,SummerDesignDay
8,16.707321072823203
10,125877150.29140195
321,69582763.22374034
2,1, 7,21, 0,19,10.00,20.00,SummerDesignDay
8,16.601881826644556
10,125214337.91646466
321,55926949.974408898
2,1, 7,21, 0,19,20.00,30.00,SummerDesignDay
8,16.496030555252849
10,124141813.58966598
321,50316449.43509437
2,1, 7,21, 0,19,30.00,40.00,SummerDesignDay
8,16.389760181474104
10,123055172.71731353
321,75479155.5818671
2,1, 7,21, 0,19,40.00,50.00,SummerDesignDay
8,16.283067654262039
10,121942467.48144669
321,50270807.4533479
2,1, 7,21, 0,19,50.00,60.00,SummerDesignDay
8,16.17595057957811
10,120800523.00321684
321,57616117.63468175
2,1, 7,21, 0,19, 0.00,60.00,SummerDesignDay
555,23.997527939657745
595,23.998836039082034
635,23.996517109607266
675,23.998424993404613
715,23.997927822812995
2,1, 7,21, 0,20, 0.00,10.00,SummerDesignDay
8,16.097123145563505
10,114636566.80072767
321,64882286.259767558
2,1, 7,21, 0,20,10.00,20.00,SummerDesignDay
8,16.018070242471564
10,113552748.25674004
321,47580670.74885076
2,1, 7,21, 0,20,20.00,30.00,SummerDesignDay
8,15.938779752340516
10,112695132.82416044
321,47602159.92369194
2,1, 7,21, 0,20,30.00,40.00,SummerDesignDay
8,15.85926152575189
10,111807995.51134099
321,47628960.17463597
2,1, 7,21, 0,20,40.00,50.00,SummerDesignDay
8,15.779503718563929
10,110906073.66030547
321,50681472.45691087
2,1, 7,21, 0,20,50.00,60.00,SummerDesignDay
8,15.699515709672767
10,109985932.51802507
321,64168453.34069504
2,1, 7,21, 0,20, 0.00,60.00,SummerDesignDay
555,23.997134095370865
595,23.99779174015221
635,23.99375802037135
675,23.999365029906867
715,23.99797872080642
2,1, 7,21, 0,21, 0.00,10.00,SummerDesignDay
8,15.63389147320404
10,104364072.50126879
321,58062436.54131028
2,1, 7,21, 0,21,10.00,20.00,SummerDesignDay
8,15.56810827419793
10,104078674.46073117
321,80887350.21098846
2,1, 7,21, 0,21,20.00,30.00,SummerDesignDay
8,15.502170882753524
10,103276652.52280274
321,54217978.034837957
2,1, 7,21, 0,21,30.00,40.00,SummerDesignDay
8,15.436068032613852
10,102460550.61270538
321,81076760.73674383
2,1, 7,21, 0,21,40.00,50.00,SummerDesignDay
8,15.369804371206009
10,101632471.81346776
321,54038982.643716197
2,1, 7,21, 0,21,50.00,60.00,SummerDesignDay
8,15.303384603594449
10,100791165.26083626
321,81067622.72318952
2,1, 7,21, 0,21, 0.00,60.00,SummerDesignDay
555,23.99755106927925
595,23.997162892196689
635,24.006980569998125
675,23.999667848695468
715,23.99807915613935
2,1, 7,21, 0,22, 0.00,10.00,SummerDesignDay
8,15.236797685071274
10,81338214.04069214
321,50620826.620990257
2,1, 7,21, 0,22,10.00,20.00,SummerDesignDay
8,15.170047891787942
10,80199558.68010763
321,72104544.51649302
2,1, 7,21, 0,22,20.00,30.00,SummerDesignDay
8,15.103134826860483
10,79400074.24620635
321,53569346.72601429
2,1, 7,21, 0,22,30.00,40.00,SummerDesignDay
8,15.036063385178485
10,78593447.72557375
321,50608984.58921747
2,1, 7,21, 0,22,40.00,50.00,SummerDesignDay
8,14.968821767219835
10,77765755.85118325
321,75100160.55696239
2,1, 7,21, 0,22,50.00,60.00,SummerDesignDay
8,14.90141525878635
10,76889398.34656143
321,50239929.07269981
2,1, 7,21, 0,22, 0.00,60.00,SummerDesignDay
555,23.998185783887555
595,23.99690835321947
635,24.00316208755589
675,23.31428757392911
715,23.99815984062749
2,1, 7,21, 0,23, 0.00,10.00,SummerDesignDay
8,14.848873673278373
10,73473639.59975939
321,69492391.62196613
2,1, 7,21, 0,23,10.00,20.00,SummerDesignDay
8,14.796237168136719
10,73164657.73606836
321,61366798.36719143
2,1, 7,21, 0,23,20.00,30.00,SummerDesignDay
8,14.743494321455645
10,72811215.30735374
321,66940736.593696188
2,1, 7,21, 0,23,30.00,40.00,SummerDesignDay
8,14.690649975253665
10,72435276.4509706
321,64217214.16320483
2,1, 7,21, 0,23,40.00,50.00,SummerDesignDay
8,14.637704281233117
10,72078972.2403455
321,64083024.17549703
2,1, 7,21, 0,23,50.00,60.00,SummerDesignDay
8,14.584656914839757
10,71706492.98555625
321,67075115.49244382
2,1, 7,21, 0,23, 0.00,60.00,SummerDesignDay
555,23.99869257810109
595,23.63550289068881
635,23.993516140269294
675,22.355938410222739
715,23.99823255241587
2,1, 7,21, 0,24, 0.00,10.00,SummerDesignDay
8,14.531507212058875
10,69409991.43246013
321,53204114.70437343
2,1, 7,21, 0,24,10.00,20.00,SummerDesignDay
8,14.47825496413355
10,68875065.77007993
321,74035593.075791
2,1, 7,21, 0,24,20.00,30.00,SummerDesignDay
8,14.4249000133173
10,68594684.99860953
321,50801237.19721747
2,1, 7,21, 0,24,30.00,40.00,SummerDesignDay
8,14.371447531304272
10,68300903.07898669
321,68900731.70743442
2,1, 7,21, 0,24,40.00,50.00,SummerDesignDay
8,14.31788619902223
10,68004385.55649378
321,58154668.50891708
2,1, 7,21, 0,24,50.00,60.00,SummerDesignDay
8,14.264220970176066
10,67715436.12195598
321,52689175.29014628
2,1, 7,21, 0,24, 0.00,60.00,SummerDesignDay
555,23.927500490280666
595,22.698796813965669
635,23.995327068678525
675,21.708374265926268
715,23.998287733514407
3,1, 7,21, 0,SummerDesignDay
556,57.87199289330665,52.809785775442389,15,10,62.43102968415102,10,10
596,53.87204814138445,47.35485779314091,17,60,65.41482239752192, 6,10
636,56.80695666400308,49.43551811700592,10,34,62.05322664193342,15,10
676,50.66345819056486,43.88087035268982,11,10,59.69482640647449, 6,40
716,47.42909978893939,45.4218431052545,22,40,49.17407665171481,17,20
4,1, 7
7,22.2505,16.5,21, 5,60,28.9,21,14,60
1,FORT MCMURRAY AP ANN HTG 99.6% CONDNS DB,  56.65,-111.22,  -7.00, 369.10
2,1, 1,21, 0, 1, 0.00,10.00,WinterDesignDay
8,-36.2
10,58539879.36280134
321,976190752.8801174
2,1, 1,21, 0, 1,10.00,20.00,WinterDesignDay
8,-36.2
10,58539879.36280134
321,978330396.2174753
2,1, 1,21, 0, 1,20.00,30.00,WinterDesignDay
8,-36.2
10,58539879.36280134
321,978539070.6494788
2,1, 1,21, 0, 1,30.00,40.00,WinterDesignDay
8,-36.2
10,58539879.36280134
321,982930001.965366
2,1, 1,21, 0, 1,40.00,50.00,WinterDesignDay
8,-36.2
10,58539879.36280134
321,994775914.0511592
2,1, 1,21, 0, 1,50.00,60.00,WinterDesignDay
8,-36.2
10,58539879.36280134
321,982430725.6839204
2,1, 1,21, 0, 1, 0.00,60.00,WinterDesignDay
555,21.999393129509376
595,21.999999789233074
635,21.999991769012526
675,17.99998534574528
715,21.998359050110538
2,1, 1,21, 0, 2, 0.00,10.00,WinterDesignDay
8,-36.2
10,46595540.10857141
321,978405710.2898727
2,1, 1,21, 0, 2,10.00,20.00,WinterDesignDay
8,-36.2
10,46595540.10857141
321,979962837.0284213
2,1, 1,21, 0, 2,20.00,30.00,WinterDesignDay
8,-36.2
10,46595540.10857141
321,973746035.6850818
2,1, 1,21, 0, 2,30.00,40.00,WinterDesignDay
8,-36.2
10,46595540.10857141
321,972474950.2837699
2,1, 1,21, 0, 2,40.00,50.00,WinterDesignDay
8,-36.2
10,46595540.10857141
321,973236842.8871589
2,1, 1,21, 0, 2,50.00,60.00,WinterDesignDay
8,-36.2
10,46595540.10857141
321,981213199.4776216
2,1, 1,21, 0, 2, 0.00,60.00,WinterDesignDay
555,20.507701518884784
595,22.000005606927215
635,22.00001645628019
675,17.999991193746266
715,21.530729660078806
2,1, 1,21, 0, 3, 0.00,10.00,WinterDesignDay
8,-36.2
10,36105544.76415407
321,882215404.5950726
2,1, 1,21, 0, 3,10.00,20.00,WinterDesignDay
8,-36.2
10,36105547.96142168
321,893787305.3959178
2,1, 1,21, 0, 3,20.00,30.00,WinterDesignDay
8,-36.2
10,36105546.68573252
321,904698183.8004598
2,1, 1,21, 0, 3,30.00,40.00,WinterDesignDay
8,-36.2
10,36105547.8616286
321,891373079.3827776
2,1, 1,21, 0, 3,40.00,50.00,WinterDesignDay
8,-36.2
10,36105942.406771
321,917261687.8292779
2,1, 1,21, 0, 3,50.00,60.00,WinterDesignDay
8,-36.2
10,36105545.80862958
321,928536462.3519322
2,1, 1,21, 0, 3, 0.00,60.00,WinterDesignDay
555,19.429820405856814
595,18.37975229353249
635,19.26922896141055
675,17.999995754528354
715,21.254616228511695
2,1, 1,21, 0, 4, 0.00,10.00,WinterDesignDay
8,-36.2
10,36105552.64397297
321,902451295.2949307
2,1, 1,21, 0, 4,10.00,20.00,WinterDesignDay
8,-36.2
10,36105548.84251174
321,922858056.8062097
2,1, 1,21, 0, 4,20.00,30.00,WinterDesignDay
8,-36.2
10,36105547.873537089
321,923947242.7607683
2,1, 1,21, 0, 4,30.00,40.00,WinterDesignDay
8,-36.2
10,36105547.33549745
321,924384427.4781238
2,1, 1,21, 0, 4,40.00,50.00,WinterDesignDay
8,-36.2
10,36105546.905629027
321,905989324.9280542
2,1, 1,21, 0, 4,50.00,60.00,WinterDesignDay
8,-36.2
10,36105546.58349809
321,924898952.9385198
2,1, 1,21, 0, 4, 0.00,60.00,WinterDesignDay
555,18.830357035732019
595,17.999985417128725
635,18.0000027024047
675,17.999990117082068
715,21.097413843984236
2,1, 1,21, 0, 5, 0.00,10.00,WinterDesignDay
8,-36.2
10,36105546.2618345
321,925135435.9723609
2,1, 1,21, 0, 5,10.00,20.00,WinterDesignDay
8,-36.2
10,36105546.04745252
321,916956151.550402
2,1, 1,21, 0, 5,20.00,30.00,WinterDesignDay
8,-36.2
10,36105545.94016818
321,915108580.901021
2,1, 1,21, 0, 5,30.00,40.00,WinterDesignDay
8,-36.2
10,36105545.83297618
321,925531925.2636147
2,1, 1,21, 0, 5,40.00,50.00,WinterDesignDay
8,-36.2
10,36105545.72586677
321,925670521.8335897
2,1, 1,21, 0, 5,50.00,60.00,WinterDesignDay
8,-36.2
10,36105545.61883062
321,907040122.7642661
2,1, 1,21, 0, 5, 0.00,60.00,WinterDesignDay
555,18.562231608237125
595,17.99998427747737
635,17.99999854957974
675,17.999990707877094
715,21.03056712770326
2,1, 1,21, 0, 6, 0.00,10.00,WinterDesignDay
8,-36.2
10,36105545.61866329
321,925763774.347278
2,1, 1,21, 0, 6,10.00,20.00,WinterDesignDay
8,-36.2
10,36105545.61849719
321,925846147.6194533
2,1, 1,21, 0, 6,20.00,30.00,WinterDesignDay
8,-36.2
10,36105545.51156902
321,925937163.2355391
2,1, 1,21, 0, 6,30.00,40.00,WinterDesignDay
8,-36.2
10,36105545.51144362
321,907251501.5818364
2,1, 1,21, 0, 6,40.00,50.00,WinterDesignDay
8,-36.2
10,36105545.511319037
321,925946167.0124127
2,1, 1,21, 0, 6,50.00,60.00,WinterDesignDay
8,-36.2
10,36105545.40448463
321,926013778.9714927
2,1, 1,21, 0, 6, 0.00,60.00,WinterDesignDay
555,18.449876503604526
595,17.999985028746264
635,18.000000441091847
675,17.999990932324328
715,21.002419274383674
2,1, 1,21, 0, 7, 0.00,10.00,WinterDesignDay
8,-36.2
10,36825807.06796906
321,926728312.22979
2,1, 1,21, 0, 7,10.00,20.00,WinterDesignDay
8,-36.2
10,36825807.067882347
321,926813075.7526213
2,1, 1,21, 0, 7,20.00,30.00,WinterDesignDay
8,-36.2
10,36825807.06779611
321,926825093.1389512
2,1, 1,21, 0, 7,30.00,40.00,WinterDesignDay
8,-36.2
10,36825807.06771035
321,926832348.3425093
2,1, 1,21, 0, 7,40.00,50.00,WinterDesignDay
8,-36.2
10,36825807.06762507
321,926832801.1532638
2,1, 1,21, 0, 7,50.00,60.00,WinterDesignDay
8,-36.2
10,36825807.06754026
321,926829370.5388948
2,1, 1,21, 0, 7, 0.00,60.00,WinterDesignDay
555,18.555509738120159
595,17.999985228571079
635,17.999998920180557
675,17.999991005102364
715,20.991321355838708
2,1, 1,21, 0, 8, 0.00,10.00,WinterDesignDay
8,-36.2
10,40157017.26147482
321,1008601172.3398837
2,1, 1,21, 0, 8,10.00,20.00,WinterDesignDay
8,-36.2
10,40157017.26139095
321,978850356.1807988
2,1, 1,21, 0, 8,20.00,30.00,WinterDesignDay
8,-36.2
10,40157017.261307548
321,964815205.961703
2,1, 1,21, 0, 8,30.00,40.00,WinterDesignDay
8,-36.2
10,40157017.2612246
321,969651012.0395593
2,1, 1,21, 0, 8,40.00,50.00,WinterDesignDay
8,-36.2
10,40157017.26114212
321,973323596.1286765
2,1, 1,21, 0, 8,50.00,60.00,WinterDesignDay
8,-36.2
10,40157017.26106009
321,967668231.2955409
2,1, 1,21, 0, 8, 0.00,60.00,WinterDesignDay
555,20.078317313323074
595,17.999988933222285
635,17.999998590069287
675,19.954938907252214
715,21.005730718686825
2,1, 1,21, 0, 9, 0.00,10.00,WinterDesignDay
8,-36.2
10,52505285.18232765
321,1107204937.2509344
2,1, 1,21, 0, 9,10.00,20.00,WinterDesignDay
8,-36.2
10,52504890.59084094
321,1013505849.1335349
2,1, 1,21, 0, 9,20.00,30.00,WinterDesignDay
8,-36.2
10,52504889.975716259
321,1006647972.1716535
2,1, 1,21, 0, 9,30.00,40.00,WinterDesignDay
8,-36.2
10,52504889.975716259
321,1002652318.8085687
2,1, 1,21, 0, 9,40.00,50.00,WinterDesignDay
8,-36.2
10,52504889.975716259
321,994520338.7727913
2,1, 1,21, 0, 9,50.00,60.00,WinterDesignDay
8,-36.2
10,52504889.975716259
321,993845692.9983711
2,1, 1,21, 0, 9, 0.00,60.00,WinterDesignDay
555,21.947533192715598
595,19.982538996464027
635,19.950743271793934
675,21.959124838053229
715,22.032836052356264
2,1, 1,21, 0,10, 0.00,10.00,WinterDesignDay
8,-36.2
10,70668784.71992649
321,1057550618.9661357
2,1, 1,21, 0,10,10.00,20.00,WinterDesignDay
8,-36.2
10,70669573.4545161
321,997787852.2986966
2,1, 1,21, 0,10,20.00,30.00,WinterDesignDay
8,-36.2
10,70668392.033647
321,1042163074.542402
2,1, 1,21, 0,10,30.00,40.00,WinterDesignDay
8,-36.2
10,70669573.4545161
321,1012270702.7246959
2,1, 1,21, 0,10,40.00,50.00,WinterDesignDay
8,-36.2
10,70669573.4545161
321,1025924334.586894
2,1, 1,21, 0,10,50.00,60.00,WinterDesignDay
8,-36.2
10,70669573.4545161
321,1031704570.0750446
2,1, 1,21, 0,10, 0.00,60.00,WinterDesignDay
555,21.999314975349248
595,21.981838351482407
635,21.9512728009267
675,21.999824989271376
715,21.998609757436485
2,1, 1,21, 0,11, 0.00,10.00,WinterDesignDay
8,-36.2
10,79578534.98758789
321,993908599.0201968
2,1, 1,21, 0,11,10.00,20.00,WinterDesignDay
8,-36.2
10,79578534.98758789
321,1009042485.4521632
2,1, 1,21, 0,11,20.00,30.00,WinterDesignDay
8,-36.2
10,79578534.98758789
321,1012291984.0332792
2,1, 1,21, 0,11,30.00,40.00,WinterDesignDay
8,-36.2
10,79578534.98758789
321,988179171.0817963
2,1, 1,21, 0,11,40.00,50.00,WinterDesignDay
8,-36.2