Program Version,EnergyPlus, Version 8.9.0-eba93e8e1b, YMD=2019.03.28 13:45
1,5,Environment Title[],Latitude[deg],Longitude[deg],Time Zone[],Elevation[m]
2,8,Day of Simulation[],Month[],Day of Month[],DST Indicator[1=yes 0=no],Hour[],StartMinute[],EndMinute[],DayType
3,5,Cumulative Day of Simulation[],Month[],Day of Month[],DST Indicator[1=yes 0=no],DayType  ! When Daily Report Variables Requested
4,2,Cumulative Days of Simulation[],Month[]  ! When Monthly Report Variables Requested
5,1,Cumulative Days of Simulation[] ! When Run Period Report Variables Requested
6,1,Calendar Year of Simulation[] ! When Annual Report Variables Requested
7,9,Environment,Site Outdoor Air Drybulb Temperature [C] !Monthly [Value,Min,Day,Hour,Minute,Max,Day,Hour,Minute]
8,1,Environment,Site Outdoor Air Wetbulb Temperature [C] !TimeStep
914,1,AUDIENCE SEATING AREA PERMANENT - OTHER-SCH-H-SPACE FUNCTION ZN,Zone Air Temperature [C] !Hourly
915,7,AUDIENCE SEATING AREA PERMANENT - OTHER-SCH-H-SPACE FUNCTION ZN,Zone Air Relative Humidity [%] !Daily [Value,Min,Hour,Minute,Max,Hour,Minute]
954,1,AUDIENCE SEATING AREA PERMANENT - OTHER-SCH-I-SPACE FUNCTION ZN,Zone Air Temperature [C] !Hourly
955,7,AUDIENCE SEATING AREA PERMANENT - OTHER-SCH-I-SPACE FUNCTION ZN,Zone Air Relative Humidity [%] !Daily [Value,Min,Hour,Minute,Max,Hour,Minute]
994,1,AUDIENCE SEATING AREA PERMANENT - OTHER-SCH-J-SPACE FUNCTION ZN,Zone Air Temperature [C] !Hourly
995,7,AUDIENCE SEATING AREA PERMANENT - OTHER-SCH-J-SPACE FUNCTION ZN,Zone Air Relative Humidity [%] !Daily [Value,Min,Hour,Minute,Max,Hour,Minute]
1034,1,AUDIENCE SEATING AREA PERMANENT - OTHER-SCH-K-SPACE FUNCTION ZN,Zone Air Temperature [C] !Hourly
1035,7,AUDIENCE SEATING AREA PERMANENT - OTHER-SCH-K-SPACE FUNCTION ZN,Zone Air Relative Humidity [%] !Daily [Value,Min,Hour,Minute,Max,Hour,Minute]
1074,1,BANKING ACTIVITY AREA AND OFFICES-SPACE FUNCTION ZN,Zone Air Temperature [C] !Hourly
1075,7,BANKING ACTIVITY AREA AND OFFICES-SPACE FUNCTION ZN,Zone Air Relative Humidity [%] !Daily [Value,Min,Hour,Minute,Max,Hour,Minute]
1114,1,CLASSROOM/LECTURE HALL/TRAINING ROOM - PENITENTARY-SPACE FUNCTION ZN,Zone Air Temperature [C] !Hourly
1115,7,CLASSROOM/LECTURE HALL/TRAINING ROOM - PENITENTARY-SPACE FUNCTION ZN,Zone Air Relative Humidity [%] !Daily [Value,Min,Hour,Minute,Max,Hour,Minute]
1154,1,CLASSROOM/LECTURE HALL/TRAINING ROOM OTHER-SPACE FUNCTION ZN,Zone Air Temperature [C] !Hourly
1155,7,CLASSROOM/LECTURE HALL/TRAINING ROOM OTHER-SPACE FUNCTION ZN,Zone Air Relative Humidity [%] !Daily [Value,Min,Hour,Minute,Max,Hour,Minute]
1194,1,CONFERENCE/MEETING/MULTI-PURPOSE ROOM-SPACE FUNCTION ZN,Zone Air Temperature [C] !Hourly
1195,7,CONFERENCE/MEETING/MULTI-PURPOSE ROOM-SPACE FUNCTION ZN,Zone Air Relative Humidity [%] !Daily [Value,Min,Hour,Minute,Max,Hour,Minute]
1234,1,CONFINEMENT CELL-SPACE FUNCTION ZN,Zone Air Temperature [C] !Hourly
1235,7,CONFINEMENT CELL-SPACE FUNCTION ZN,Zone Air Relative Humidity [%] !Daily [Value,Min,Hour,Minute,Max,Hour,Minute]
1274,1,COPY/PRINT ROOM-SPACE FUNCTION ZN,Zone Air Temperature [C] !Hourly
1275,7,COPY/PRINT ROOM-SPACE FUNCTION ZN,Zone Air Relative Humidity [%] !Daily [Value,Min,Hour,Minute,Max,Hour,Minute]
1314,1,COURTROOM-SPACE FUNCTION ZN,Zone Air Temperature [C] !Hourly
1315,7,COURTROOM-SPACE FUNCTION ZN,Zone Air Relative Humidity [%] !Daily [Value,Min,Hour,Minute,Max,Hour,Minute]
1354,1,DINING AREA - BAR LOUNGE/LEISURE DINING-SPACE FUNCTION ZN,Zone Air Temperature [C] !Hourly
1355,7,DINING AREA - BAR LOUNGE/LEISURE DINING-SPACE FUNCTION ZN,Zone Air Relative Humidity [%] !Daily [Value,Min,Hour,Minute,Max,Hour,Minute]
1394,1,DINING AREA - CAFETERIA/FAST FOOD DINING-SPACE FUNCTION ZN,Zone Air Temperature [C] !Hourly
1395,7,DINING AREA - CAFETERIA/FAST FOOD DINING-SPACE FUNCTION ZN,Zone Air Relative Humidity [%] !Daily [Value,Min,Hour,Minute,Max,Hour,Minute]
1434,1,DINING AREA - FAMILY DINING-SPACE FUNCTION ZN,Zone Air Temperature [C] !Hourly
1435,7,DINING AREA - FAMILY DINING-SPACE FUNCTION ZN,Zone Air Relative Humidity [%] !Daily [Value,Min,Hour,Minute,Max,Hour,Minute]
1474,1,DINING AREA - OTHER-SPACE FUNCTION ZN,Zone Air Temperature [C] !Hourly
1475,7,DINING AREA - OTHER-SPACE FUNCTION ZN,Zone Air Relative Humidity [%] !Daily [Value,Min,Hour,Minute,Max,Hour,Minute]
1514,1,DINING AREA - PENITENTIARY-SPACE FUNCTION ZN,Zone Air Temperature [C] !Hourly
1515,7,DINING AREA - PENITENTIARY-SPACE FUNCTION ZN,Zone Air Relative Humidity [%] !Daily [Value,Min,Hour,Minute,Max,Hour,Minute]
1554,1,DINING AREA - SPACE DESIGNED TO ANSI/IES RP-28 (USED PRIMARILY BY RESIDENTS)-SPACE FUNCTION ZN,Zone Air Temperature [C] !Hourly
1555,7,DINING AREA - SPACE DESIGNED TO ANSI/IES RP-28 (USED PRIMARILY BY RESIDENTS)-SPACE FUNCTION ZN,Zone Air Relative Humidity [%] !Daily [Value,Min,Hour,Minute,Max,Hour,Minute]
1594,1,DRESSING/FITTING ROOM - PERFORMING ARTS THEATRE-SPACE FUNCTION ZN,Zone Air Temperature [C] !Hourly
1595,7,DRESSING/FITTING ROOM - PERFORMING ARTS THEATRE-SPACE FUNCTION ZN,Zone Air Relative Humidity [%] !Daily [Value,Min,Hour,Minute,Max,Hour,Minute]
1634,1,EMERGENCY VEHICLE GARAGE-SPACE FUNCTION ZN,Zone Air Temperature [C] !Hourly
1635,7,EMERGENCY VEHICLE GARAGE-SPACE FUNCTION ZN,Zone Air Relative Humidity [%] !Daily [Value,Min,Hour,Minute,Max,Hour,Minute]
1674,1,FOOD PREPARATION AREA-SPACE FUNCTION ZN,Zone Air Temperature [C] !Hourly
1675,7,FOOD PREPARATION AREA-SPACE FUNCTION ZN,Zone Air Relative Humidity [%] !Daily [Value,Min,Hour,Minute,Max,Hour,Minute]
10,1,Electricity:Facility [J] !TimeStep
1825,1,DistrictCooling:Facility [J] !TimeStep
1788,1,DistrictHeating:Facility [J] !TimeStep
End of Data Dictionary
1,FORT MCMURRAY AP ANN CLG .4% CONDNS DB=>MWB,  56.65,-111.22,  -7.00, 369.10
2,1, 7,21, 0, 1, 0.00,10.00,SummerDesignDay
8,14.218136923962174
10,165092166.26704649
1788,6422023.739394752
1825,18501357.672736389
2,1, 7,21, 0, 1,10.00,20.00,SummerDesignDay
8,14.171982153293495
10,165092166.26704649
1788,7450907.07587832
1825,18023947.29239444
2,1, 7,21, 0, 1,20.00,30.00,SummerDesignDay
8,14.125744780286427
10,165092166.26704649
1788,8436717.547168112
1825,17547925.669531369
2,1, 7,21, 0, 1,30.00,40.00,SummerDesignDay
8,14.079436086331978
10,165092166.26704649
1788,9412068.059951028
1825,17066313.561176018
2,1, 7,21, 0, 1,40.00,50.00,SummerDesignDay
8,14.033050387896898
10,165092166.26704649
1788,10968871.49556944
1825,16579842.119582912
2,1, 7,21, 0, 1,50.00,60.00,SummerDesignDay
8,13.986581233564835
10,165092166.26704649
1788,12773975.176772528
1825,16089126.745601925
2,1, 7,21, 0, 1, 0.00,60.00,SummerDesignDay
914,22.701627903233427
954,21.139345828464657
994,22.511571600684236
1034,22.080516096039678
1074,24.621745083899499
1114,21.297307429371828
1154,22.778685430555585
1194,23.152226990908106
1234,23.294831961236356
1274,23.672508763036246
1314,23.14626509385768
1354,22.277466181414483
1394,22.000007343986039
1434,22.232603772502914
1474,22.12737857512495
1514,22.303655701899769
1554,23.71333022332784
1594,25.10798895020977
1634,22.654989707727557
1674,24.0
2,1, 7,21, 0, 2, 0.00,10.00,SummerDesignDay
8,13.95555882260429
10,108022683.51748613
1788,31192914.334386246
1825,0.0
2,1, 7,21, 0, 2,10.00,20.00,SummerDesignDay
8,13.924507755336454
10,108022683.51748613
1788,36180092.10073685
1825,0.0
2,1, 7,21, 0, 2,20.00,30.00,SummerDesignDay
8,13.893416042989206
10,108022683.51748613
1788,39800583.37913666
1825,0.0
2,1, 7,21, 0, 2,30.00,40.00,SummerDesignDay
8,13.862289589689029
10,108022683.51748613
1788,44550803.80409126
1825,0.0
2,1, 7,21, 0, 2,40.00,50.00,SummerDesignDay
8,13.831134407608739
10,108022683.51748613
1788,47760426.58193117
1825,0.0
2,1, 7,21, 0, 2,50.00,60.00,SummerDesignDay
8,13.799938415548118
10,108022683.51748613
1788,51449322.51980999
1825,0.0
2,1, 7,21, 0, 2, 0.00,60.00,SummerDesignDay
914,22.21554569746738
954,20.138198280272513
994,22.05386006405914
1034,21.667448372336027
1074,24.305061951504816
1114,20.744769506019194
1154,22.331036719447157
1194,22.78682643229817
1234,22.80061995634207
1274,23.294350900721925
1314,22.779906993539244
1354,22.001068852403255
1394,22.000000000049423
1434,22.000394001021765
1474,22.000022919808385
1514,22.002262396994437
1554,22.746918909669846
1594,24.904366614494426
1634,22.247687605985325
1674,24.30712435239767
2,1, 7,21, 0, 3, 0.00,10.00,SummerDesignDay
8,13.776521671948676
10,56253876.44827336
1788,3059848.416488976
1825,0.0
2,1, 7,21, 0, 3,10.00,20.00,SummerDesignDay
8,13.753085235778466
10,56253876.44827336
1788,3591184.1300793958
1825,0.0
2,1, 7,21, 0, 3,20.00,30.00,SummerDesignDay
8,13.729636002354969
10,56253876.44827336
1788,4124726.804106501
1825,0.0
2,1, 7,21, 0, 3,30.00,40.00,SummerDesignDay
8,13.706147375533054
10,56253876.44827336
1788,4658358.121580468
1825,0.0
2,1, 7,21, 0, 3,40.00,50.00,SummerDesignDay
8,13.682651961920304
10,56253876.44827336
1788,5184368.557054027
1825,0.0
2,1, 7,21, 0, 3,50.00,60.00,SummerDesignDay
8,13.659136670643687
10,56253876.44827336
1788,5700810.301052967
1825,0.0
2,1, 7,21, 0, 3, 0.00,60.00,SummerDesignDay
914,21.85747972199782
954,19.630055288009879
994,22.00000079162618
1034,21.3508979010716
1074,24.04149554835401
1114,20.339347730836008
1154,21.977147921141449
1194,22.47474765374592
1234,22.53036854700045
1274,23.007972635584378
1314,22.474391933532617
1354,21.02165293477885
1394,20.0606209612671
1434,21.003795732223997
1474,21.030062393701024
1514,21.14289323094155
1554,21.811004510895207
1594,24.71882626968538
1634,21.925907022638559
1674,23.58063762012848
2,1, 7,21, 0, 4, 0.00,10.00,SummerDesignDay
8,13.63560137410855
10,56253876.44827336
1788,6210960.333315413
1825,0.0
2,1, 7,21, 0, 4,10.00,20.00,SummerDesignDay
8,13.612040802606578
10,56253876.44827336
1788,6716616.31950986
1825,0.0
2,1, 7,21, 0, 4,20.00,30.00,SummerDesignDay
8,13.58846620506876
10,56253876.44827336
1788,7217784.898381824
1825,0.0
2,1, 7,21, 0, 4,30.00,40.00,SummerDesignDay
8,13.56487178447336
10,56253876.44827336
1788,7713236.2397877
1825,0.0
2,1, 7,21, 0, 4,40.00,50.00,SummerDesignDay
8,13.541257354069103
10,56253876.44827336
1788,8205181.659568247
1825,0.0
2,1, 7,21, 0, 4,50.00,60.00,SummerDesignDay
8,13.517617463812285
10,56253876.44827336
1788,8693878.25320058
1825,0.0
2,1, 7,21, 0, 4, 0.00,60.00,SummerDesignDay
914,21.515014277235804
954,19.234069473594919
994,22.00000000000097
1034,21.032463186509387
1074,23.755758749774583
1114,19.949191640446747
1154,21.623591876377959
1194,22.13447328312247
1234,22.292505980980633
1274,22.721238942703
1314,22.14462428422922
1354,20.465464474000503
1394,19.167551289722004
1434,20.434263971633514
1474,20.470529646490236
1514,20.647013239065467
1554,21.294423165175087
1594,24.50183013314026
1634,21.58219313692376
1674,23.027247454018285
2,1, 7,21, 0, 5, 0.00,10.00,SummerDesignDay
8,13.50185415824011
10,56253876.44827336
1788,9066758.979254669
1825,0.0
2,1, 7,21, 0, 5,10.00,20.00,SummerDesignDay
8,13.486076034032447
10,56253876.44827336
1788,9148105.55081617
1825,0.0
2,1, 7,21, 0, 5,20.00,30.00,SummerDesignDay
8,13.470289340350983
10,56253876.44827336
1788,9291056.314527506
1825,0.0
2,1, 7,21, 0, 5,30.00,40.00,SummerDesignDay
8,13.454493322631063
10,56253876.44827336
1788,9456310.178864668
1825,0.0
2,1, 7,21, 0, 5,40.00,50.00,SummerDesignDay
8,13.438688835118548
10,56253876.44827336
1788,9602298.381655153
1825,0.0
2,1, 7,21, 0, 5,50.00,60.00,SummerDesignDay
8,13.422888173889437
10,56253876.44827336
1788,9730482.69413999
1825,0.0
2,1, 7,21, 0, 5, 0.00,60.00,SummerDesignDay
914,21.271752986507527
954,19.049029649298956
994,22.000000000000026
1034,20.751687037140284
1074,23.607811884886485
1114,19.85401713425478
1154,21.32106990122524
1194,21.88650830973619
1234,22.08608283413947
1274,22.47949145237924
1314,21.859795591860168
1354,20.17667713902228
1394,18.856273167296238
1434,20.1360591189168
1474,20.16857619378984
1514,20.42206991060166
1554,20.97484882800354
1594,24.423576702225437
1634,21.271543467228264
1674,22.753536749053198
2,1, 7,21, 0, 6, 0.00,10.00,SummerDesignDay
8,13.438688835118548
10,57401793.4745907
1788,8760418.229582942
1825,0.0
2,1, 7,21, 0, 6,10.00,20.00,SummerDesignDay
8,13.454493322631063
10,57401793.4745907
1788,8295043.469900331
1825,0.0
2,1, 7,21, 0, 6,20.00,30.00,SummerDesignDay
8,13.470289340350983
10,57401793.4745907
1788,7890379.845170982
1825,0.0
2,1, 7,21, 0, 6,30.00,40.00,SummerDesignDay
8,13.486076034032447
10,57401793.4745907
1788,7466371.300664718
1825,0.0
2,1, 7,21, 0, 6,40.00,50.00,SummerDesignDay
8,13.50185415824011
10,57401793.4745907
1788,7034786.505891029
1825,0.0
2,1, 7,21, 0, 6,50.00,60.00,SummerDesignDay
8,13.517617463812285
10,57401793.4745907
1788,6585741.847465005
1825,0.0
2,1, 7,21, 0, 6, 0.00,60.00,SummerDesignDay
914,21.308183609310409
954,19.2185336267953
994,22.000000000000015
1034,20.747909429524314
1074,23.908014111571359
1114,20.593741332055435
1154,21.16169508720304
1194,21.78544447418533
1234,21.96348039324941
1274,22.372267218654476
1314,21.693122106117149
1354,20.044080257673309
1394,18.88668877663244
1434,19.993713554623385
1474,20.021019212226265
1514,20.371222774957663
1554,20.81764919613033
1594,24.785326154556544
1634,21.121673290002716
1674,22.577222651745385
2,1, 7,21, 0, 7, 0.00,10.00,SummerDesignDay
8,13.572736920571789
10,60530430.07573006
1788,4930980.588265816
1825,4861652.683324014
2,1, 7,21, 0, 7,10.00,20.00,SummerDesignDay
8,13.627748229152554
10,60530430.07573006
1788,3754266.9607296215
1825,1795121.3512036005
2,1, 7,21, 0, 7,20.00,30.00,SummerDesignDay
8,13.682651961920304
10,60530430.07573006
1788,2610787.243120215
1825,4163597.5386660916
2,1, 7,21, 0, 7,30.00,40.00,SummerDesignDay
8,13.737448093244995
10,60530430.07573006
1788,1416319.2834783358
1825,4615579.250447627
2,1, 7,21, 0, 7,40.00,50.00,SummerDesignDay
8,13.792137011831216
10,60530430.07573006
1788,167512.339992088
1825,5292944.348068751
2,1, 7,21, 0, 7,50.00,60.00,SummerDesignDay
8,13.846719282840333
10,60530430.07573006
1788,0.0
1825,5960956.477898859
2,1, 7,21, 0, 7, 0.00,60.00,SummerDesignDay
914,21.765075389045859
954,19.611952377900946
994,22.007628816322524
1034,21.428094318041834
1074,24.000946582870126
1114,21.70191154155332
1154,21.260200768798176
1194,21.75283610515621
1234,22.129310936379058
1274,22.53338761910614
1314,21.734555957172888
1354,20.20559619492217
1394,19.38561343159651
1434,20.144286356339909
1474,20.165907254736135
1514,20.4998229288179
1554,20.94150627076069
1594,25.273124322732497
1634,21.269568292553765
1674,22.57100799645141
2,1, 7,21, 0, 8, 0.00,10.00,SummerDesignDay
8,13.978831900527043
10,82039131.46325365
1788,2232683.9263189986
1825,37666099.22018415
2,1, 7,21, 0, 8,10.00,20.00,SummerDesignDay
8,14.110321014287419
10,82039131.46325365
1788,0.0
1825,19611394.859690824
2,1, 7,21, 0, 8,20.00,30.00,SummerDesignDay
8,14.241191509616986
10,82039131.46325365
1788,0.0
1825,26171079.967738388
2,1, 7,21, 0, 8,30.00,40.00,SummerDesignDay
8,14.371447531304272
10,82039131.46325365
1788,0.0
1825,25054132.539534317
2,1, 7,21, 0, 8,40.00,50.00,SummerDesignDay
8,14.501093766564925
10,82039131.46325365
1788,0.0
1825,28288882.572334857
2,1, 7,21, 0, 8,50.00,60.00,SummerDesignDay
8,14.630134792273804
10,82039131.46325365
1788,0.0
1825,35794537.97431154
2,1, 7,21, 0, 8, 0.00,60.00,SummerDesignDay
914,22.898785482317405
954,20.752579877061178
994,22.619776485310653
1034,22.602475089831626
1074,24.000000000001735
1114,23.215782241748458
1154,21.776221580227703
1194,22.060818723748473
1234,22.59306479479022
1274,23.598180049478278
1314,22.527805056994809
1354,20.850084123371596
1394,20.636073611266455
1434,20.775705620331704
1474,20.79257191903856
1514,21.10447854579253
1554,21.524830503740224
1594,23.94910202902827
1634,21.906511652227427
1674,22.83984674233363
2,1, 7,21, 0, 9, 0.00,10.00,SummerDesignDay
8,14.773641492809972
10,159704856.6134773
1788,0.0
1825,85413625.1552103
2,1, 7,21, 0, 9,10.00,20.00,SummerDesignDay
8,14.91640948124148
10,159704856.6134773
1788,0.0
1825,107798143.28195703
2,1, 7,21, 0, 9,20.00,30.00,SummerDesignDay
8,15.05843890714102
10,159704856.6134773
1788,0.0
1825,133609768.15245623
2,1, 7,21, 0, 9,30.00,40.00,SummerDesignDay
8,15.199735893563798
10,159704856.6134773
1788,0.0
1825,152676301.50502006
2,1, 7,21, 0, 9,40.00,50.00,SummerDesignDay
8,15.340306256439395
10,159704856.6134773
1788,0.0
1825,171023134.2457609
2,1, 7,21, 0, 9,50.00,60.00,SummerDesignDay
8,15.48015101768072
10,159704856.6134773
1788,0.0
1825,188280950.72392325
2,1, 7,21, 0, 9, 0.00,60.00,SummerDesignDay
914,23.967029090926038
954,22.647969605404247
994,23.841290635146995
1034,23.522875584384594
1074,24.000000000000019
1114,23.999945658867614
1154,22.994814542029407
1194,23.146625279873719
1234,23.19853050678132
1274,23.99999834901722
1314,23.90141912725839
1354,21.993314176854417
1394,22.637047076110805
1434,21.90501484910058
1474,21.919496354317404
1514,22.191945550726165
1554,22.586946483134157
1594,23.999999999998683
1634,23.05180712724054
1674,23.41943448293192
2,1, 7,21, 0,10, 0.00,10.00,SummerDesignDay
8,15.60467292907716
10,255591660.04194004
1788,0.0
1825,263963727.1574663
2,1, 7,21, 0,10,10.00,20.00,SummerDesignDay
8,15.72862731650033
10,255591660.04194004
1788,0.0
1825,307017062.7992205
2,1, 7,21, 0,10,20.00,30.00,SummerDesignDay
8,15.852017409284228
10,255591660.04194004
1788,0.0
1825,340871732.0976032
2,1, 7,21, 0,10,30.00,40.00,SummerDesignDay
8,15.974848118364367
10,255591660.04194004
1788,0.0
1825,372207563.15492597
2,1, 7,21, 0,10,40.00,50.00,SummerDesignDay
8,16.097123145563505
10,255591660.04194004
1788,0.0
1825,412626072.40185537
2,1, 7,21, 0,10,50.00,60.00,SummerDesignDay
8,16.218846351168599
10,255591660.04194004
1788,0.0
1825,455572506.1452781
2,1, 7,21, 0,10, 0.00,60.00,SummerDesignDay
914,23.99999999023135
954,24.742242279734727
994,23.999999879093229
1034,24.337837564696576
1074,24.0
1114,23.999999999998864
1154,23.99602458894128
1194,23.992259894966755
1234,23.688157706126288
1274,23.99999999999994
1314,23.999999997467375
1354,23.61393883559988
1394,23.99398252466538
1434,23.52854180445769
1474,23.497624425267529
1514,23.68075445694143
1554,23.928085036705438
1594,24.000000000000005
1634,23.979108290912028
1674,23.99882690363025
2,1, 7,21, 0,11, 0.00,10.00,SummerDesignDay
8,16.325793027093189
10,285876355.9069871
1788,0.0
1825,520862799.95455667
2,1, 7,21, 0,11,10.00,20.00,SummerDesignDay
8,16.432322158488288
10,285876355.9069871
1788,0.0
1825,555087348.1100614
2,1, 7,21, 0,11,20.00,30.00,SummerDesignDay
8,16.538424180249178
10,285876355.9069871
1788,0.0
1825,587433909.4548951
2,1, 7,21, 0,11,30.00,40.00,SummerDesignDay
8,16.644108396469087
10,285876355.9069871
1788,0.0
1825,619404560.9335971
2,1, 7,21, 0,11,40.00,50.00,SummerDesignDay
8,16.749376736593655
10,285876355.9069871
1788,0.0
1825,650008359.8664388
2,1, 7,21, 0,11,50.00,60.00,SummerDesignDay
8,16.854232613237156
10,285876355.9069871
1788,0.0
1825,680466730.9585815
2,1, 7,21, 0,11, 0.00,60.00,SummerDesignDay
914,24.000000000000033
954,26.549590505489005
994,23.99999999999997
1034,25.57831953166048
1074,24.000000000000044
1114,24.000000000000033
1154,23.99999999990045
1194,23.99999999999225
1234,23.999696563748065
1274,24.000000000000055
1314,24.000000000000015
1354,23.999989568511535
1394,23.999999997486353
1434,23.999952239483766
1474,23.99991657704297
1514,23.999994360037325
1554,23.999999991983768
1594,23.999999999999987
1634,23.99999999661651
1674,23.9999999999995
2,1, 7,21, 0,12, 0.00,10.00,SummerDesignDay
8,16.92390823520069
10,311243071.37090149
1788,0.0
1825,730145393.8368805
2,1, 7,21, 0,12,10.00,20.00,SummerDesignDay
8,16.99340178950456
10,311243071.37090149
1788,0.0
1825,752415001.1157507
2,1, 7,21, 0,12,20.00,30.00,SummerDesignDay
8,17.06272006743463
10,311243071.37090149
1788,0.0
1825,773704259.1689372
2,1, 7,21, 0,12,30.00,40.00,SummerDesignDay
8,17.131853229172639
10,311243071.37090149
1788,0.0
1825,794981361.8107935
2,1, 7,21, 0,12,40.00,50.00,SummerDesignDay
8,17.200807172194087
10,311243071.37090149
1788,0.0
1825,816077930.0497409
2,1, 7,21, 0,12,50.00,60.00,SummerDesignDay
8,17.269582116758607
10,311243071.37090149
1788,0.0
1825,836556756.05788
2,1, 7,21, 0,12, 0.00,60.00,SummerDesignDay
914,23.99999999999996
954,27.977340475522465
994,24.000000000000015
1034,26.688566714093346
1074,24.000000000000026
1114,24.000000000000019
1154,23.999999999999987
1194,24.00000000000001
1234,23.999999999978969
1274,24.000000000000097
1314,24.00000000000006
1354,23.99999999971962
1394,23.999999999999905
1434,23.999999998639596
1474,23.999999997555304
1514,23.999999999866508
1554,23.99999999999987
1594,24.000000000000019
1634,23.9999999999999
1674,24.000000000000019
2,1, 7,21, 0,13, 0.00,10.00,SummerDesignDay
8,17.32447360221357
10,310612842.4152762
1788,0.0
1825,867797927.2161839
2,1, 7,21, 0,13,10.00,20.00,SummerDesignDay
8,17.379251291230806
10,310612842.4152762
1788,0.0
1825,884591409.653679
2,1, 7,21, 0,13,20.00,30.00,SummerDesignDay
8,17.433921312061729
10,310612842.4152762
1788,0.0
1825,900530252.194333
2,1, 7,21, 0,13,30.00,40.00,SummerDesignDay
8,17.488473222557489
10,310612842.4152762
1788,0.0
1825,915953501.943287
2,1, 7,21, 0,13,40.00,50.00,SummerDesignDay
8,17.542913447755134
10,310612842.4152762
1788,0.0
1825,930750607.1528875
2,1, 7,21, 0,13,50.00,60.00,SummerDesignDay
8,17.59724609886134
10,310612842.4152762
1788,0.0
1825,945022964.8711993
2,1, 7,21, 0,13, 0.00,60.00,SummerDesignDay
914,23.99999999999999
954,28.996928299506263
994,23.999999999999948
1034,27.438463503620637
1074,24.00000000000004
1114,24.00000000000003
1154,24.00000000000004
1194,24.00000000000001
1234,24.0
1274,24.000000000000126
1314,23.999999999999984
1354,23.99999999999999
1394,23.999999999999976
1434,23.999999999999877
1474,23.99999999999977
1514,23.99999999999997
1554,24.000000000000015
1594,24.000000000000015
1634,23.99999999999996
1674,24.000000000000015
2,1, 7,21, 0,14, 0.00,10.00,SummerDesignDay
8,17.6311450462694
10,310612842.4152762
1788,0.0
1825,950411399.9798069
2,1, 7,21, 0,14,10.00,20.00,SummerDesignDay
8,17.665000449016245
10,310612842.4152762
1788,0.0
1825,959725072.5882615
2,1, 7,21, 0,14,20.00,30.00,SummerDesignDay
8,17.698812743128934
10,310612842.4152762
1788,0.0
1825,969065716.4050688
2,1, 7,21, 0,14,30.00,40.00,SummerDesignDay
8,17.732582050940107
10,310612842.4152762
1788,0.0
1825,978410731.2313217
2,1, 7,21, 0,14,40.00,50.00,SummerDesignDay
8,17.766307345121004
10,310612842.4152762
1788,0.0
1825,987776644.7835028
2,1, 7,21, 0,14,50.00,60.00,SummerDesignDay
8,17.79999023167558
10,310612842.4152762
1788,0.0
1825,997167363.4244245
2,1, 7,21, 0,14, 0.00,60.00,SummerDesignDay
914,24.000000000000005
954,29.69405481073406
994,24.00000000000001
1034,28.002784822426535
1074,24.000000000000019
1114,24.000000000000005
1154,24.000000000000047
1194,24.000000000000044
1234,23.999999999999998
1274,24.000000000000047
1314,24.0
1354,24.000000000000015
1394,24.000000000000005
1434,24.000000000000005
1474,24.00000000000001
1514,24.000000000000026
1554,23.999999999999987
1594,24.00000000000001
1634,23.999999999999998
1674,24.000000000000044
2,1, 7,21, 0,15, 0.00,10.00,SummerDesignDay
8,17.79999023167558
10,310725383.30020937
1788,0.0
1825,1137398279.8436239
2,1, 7,21, 0,15,10.00,20.00,SummerDesignDay
8,17.79999023167558
10,310725383.30020937
1788,0.0
1825,995613945.3651861
2,1, 7,21, 0,15,20.00,30.00,SummerDesignDay
8,17.79999023167558
10,310725383.30020937
1788,0.0
1825,1077919508.7042344
2,1, 7,21, 0,15,30.00,40.00,SummerDesignDay
8,17.79999023167558
10,310725383.30020937
1788,0.0
1825,1063084023.8597175
2,1, 7,21, 0,15,40.00,50.00,SummerDesignDay
8,17.79999023167558
10,310725383.30020937
1788,0.0
1825,1062802296.0008326
2,1, 7,21, 0,15,50.00,60.00,SummerDesignDay
8,17.79999023167558
10,310725383.30020937
1788,0.0
1825,1063279510.8057132
2,1, 7,21, 0,15, 0.00,60.00,SummerDesignDay
914,24.00000000000006
954,23.966144762907964
994,24.000000000000047
1034,28.289793931777856
1074,24.0
1114,24.000000000000026
1154,24.000000000000019
1194,24.00000000000004
1234,24.0
1274,24.000000000000058
1314,24.000000000000005
1354,24.000000000000005
1394,24.00000000000001
1434,24.00000000000001
1474,24.000000000000015
1514,23.999999999999976
1554,23.999999999999959
1594,24.0
1634,24.000000000000015
1674,24.000000000000055
2,1, 7,21, 0,16, 0.00,10.00,SummerDesignDay
8,17.759562446305357
10,313167520.503257
1788,0.0
1825,1043936664.7440178
2,1, 7,21, 0,16,10.00,20.00,SummerDesignDay
8,17.71907809634183
10,313167520.503257
1788,0.0
1825,1034258861.5096717
2,1, 7,21, 0,16,20.00,30.00,SummerDesignDay
8,17.67853788661001
10,313167520.503257
1788,0.0
1825,1023888409.6099689
2,1, 7,21, 0,16,30.00,40.00,SummerDesignDay
8,17.63791796367351
10,313167520.503257
1788,0.0
1825,1013020421.7046249
2,1, 7,21, 0,16,40.00,50.00,SummerDesignDay
8,17.59724609886134
10,313167520.503257
1788,0.0
1825,1001720725.3885002
2,1, 7,21, 0,16,50.00,60.00,SummerDesignDay
8,17.55650676726033
10,313167520.503257
1788,0.0
1825,989907993.4216021
2,1, 7,21, 0,16, 0.00,60.00,SummerDesignDay
914,24.000000000000047
954,23.999994639588917
994,24.000000000000076
1034,28.219898904213609
1074,24.000000000000015
1114,24.00000000000014
1154,24.00000000000007
1194,24.000000000000019
1234,24.0
1274,24.00000000000009
1314,24.00000000000004
1354,24.000000000000019
1394,24.00000000000001
1434,24.00000000000001
1474,23.99999999999999
1514,24.0
1554,24.000000000000026
1594,24.000000000000033
1634,24.000000000000019
1674,24.000000000000033
2,1, 7,21, 0,17, 0.00,10.00,SummerDesignDay
8,17.50209486331892
10,304524380.54039707
1788,0.0
1825,965950995.2352564
2,1, 7,21, 0,17,10.00,20.00,SummerDesignDay
8,17.447570789624618
10,304524380.54039707
1788,0.0
1825,949442239.058741
2,1, 7,21, 0,17,20.00,30.00,SummerDesignDay
8,17.392929544208135
10,304524380.54039707
1788,0.0
1825,933261117.3992007
2,1, 7,21, 0,17,30.00,40.00,SummerDesignDay
8,17.33818013976614
10,304524380.54039707
1788,0.0
1825,916932870.6732491
2,1, 7,21, 0,17,40.00,50.00,SummerDesignDay
8,17.283317298559309
10,304524380.54039707
1788,0.0
1825,900473502.9083567
2,1, 7,21, 0,17,50.00,60.00,SummerDesignDay
8,17.22833552437677
10,304524380.54039707
1788,0.0
1825,883859117.9250695
2,1, 7,21, 0,17, 0.00,60.00,SummerDesignDay
914,23.999999999999948
954,23.999999999672246
994,24.000000000000055
1034,28.204347256384307
1074,24.000000000000015
1114,24.0
1154,24.000000000000005
1194,24.00000000000009
1234,24.0
1274,23.999999999999998
1314,24.000000000000019
1354,24.000000000000005
1394,24.000000000000069
1434,24.000000000000015
1474,24.00000000000001
1514,24.0
1554,23.99999999999999
1594,24.0
1634,23.99999999999999
1674,24.000000000000044
2,1, 7,21, 0,18, 0.00,10.00,SummerDesignDay
8,17.159453019160176
10,286536689.5493319
1788,0.0
1825,848635011.7517864
2,1, 7,21, 0,18,10.00,20.00,SummerDesignDay
8,17.090391773337136
10,286536689.5493319
1788,0.0
1825,826784362.2411013
2,1, 7,21, 0,18,20.00,30.00,SummerDesignDay
8,17.021151077964786
10,286536689.5493319
1788,0.0
1825,805066456.0166856
2,1, 7,21, 0,18,30.00,40.00,SummerDesignDay
8,16.951729380464653
10,286536689.5493319
1788,0.0
1825,781811194.8302133
2,1, 7,21, 0,18,40.00,50.00,SummerDesignDay
8,16.882126503829249
10,286536689.5493319
1788,0.0
1825,758631500.3780347
2,1, 7,21, 0,18,50.00,60.00,SummerDesignDay
8,16.812341807494034
10,286536689.5493319
1788,0.0
1825,735523384.5290936
2,1, 7,21, 0,18, 0.00,60.00,SummerDesignDay
914,23.99999999999999
954,23.99999999999999
994,24.000000000000069
1034,27.86269043397012
1074,24.000000000000015
1114,24.00000000000003
1154,24.0
1194,24.0
1234,24.00000000000001
1274,24.000000000000033
1314,24.0
1354,23.999999999999987
1394,24.00000000000001
1434,23.999999999999998
1474,24.000000000000005
1514,23.999999999999984
1554,23.999999999999998
1594,24.000000000000019
1634,23.999999999999987
1674,24.0
2,1, 7,21, 0,19, 0.00,10.00,SummerDesignDay
8,16.707321072823203
10,246415864.0706921
1788,0.0
1825,693333872.1819466
2,1, 7,21, 0,19,10.00,20.00,SummerDesignDay
8,16.601881826644556
10,246415864.0706921
1788,0.0
1825,659985814.907808
2,1, 7,21, 0,19,20.00,30.00,SummerDesignDay
8,16.496030555252849
10,246415864.0706921
1788,0.0
1825,626464290.2404326
2,1, 7,21, 0,19,30.00,40.00,SummerDesignDay
8,16.389760181474104
10,246415864.0706921
1788,0.0
1825,591726465.6630125
2,1, 7,21, 0,19,40.00,50.00,SummerDesignDay
8,16.283067654262039
10,246415864.0706921
1788,0.0
1825,556775743.1115552
2,1, 7,21, 0,19,50.00,60.00,SummerDesignDay
8,16.17595057957811
10,246415864.0706921
1788,0.0
1825,522032226.0157244
2,1, 7,21, 0,19, 0.00,60.00,SummerDesignDay
914,23.999999999999927
954,24.000000000000019
994,23.999999999999984
1034,26.719719566839886
1074,24.00000000000003
1114,23.999999999999969
1154,24.000000000000019
1194,24.00000000000003
1234,24.0
1274,24.0
1314,24.0
1354,24.00000000000001
1394,24.000000000000015
1434,24.00000000000001
1474,23.99999999999999
1514,24.000000000000026
1554,24.00000000000003
1594,24.0
1634,23.99999999999999
1674,24.000000000000026
2,1, 7,21, 0,20, 0.00,10.00,SummerDesignDay
8,16.097123145563505
10,227564905.71357084
1788,0.0
1825,510553557.4739337
2,1, 7,21, 0,20,10.00,20.00,SummerDesignDay
8,16.018070242471564
10,227564905.71357084
1788,0.0
1825,484265911.28287896
2,1, 7,21, 0,20,20.00,30.00,SummerDesignDay
8,15.938779752340516
10,227564905.71357084
1788,0.0
1825,457126712.7748599
2,1, 7,21, 0,20,30.00,40.00,SummerDesignDay
8,15.85926152575189
10,227564905.71357084
1788,0.0
1825,429315091.65427
2,1, 7,21, 0,20,40.00,50.00,SummerDesignDay
8,15.779503718563929
10,227564905.71357084
1788,0.0
1825,400466509.04192379
2,1, 7,21, 0,20,50.00,60.00,SummerDesignDay
8,15.699515709672767
10,227564905.71357084
1788,0.0
1825,370951667.09076818
2,1, 7,21, 0,20, 0.00,60.00,SummerDesignDay
914,24.0
954,24.000000000000005
994,23.999999999999987
1034,25.322899950314036
1074,24.00000000000001
1114,23.999999999999987
1154,24.000000000000019
1194,24.000000000000015
1234,23.999999999999998
1274,24.00000000000001
1314,24.000000000000015
1354,24.00000000000001
1394,24.00000000000001
1434,24.00000000000001
1474,24.0
1514,24.0
1554,24.0
1594,24.000000000000015
1634,24.000000000000019
1674,24.000000000000044