Program Version,EnergyPlus, Version 8.9.0-eba93e8e1b, YMD=2019.04.04 17:58
1,5,Environment Title[],Latitude[deg],Longitude[deg],Time Zone[],Elevation[m]
2,8,Day of Simulation[],Month[],Day of Month[],DST Indicator[1=yes 0=no],Hour[],StartMinute[],EndMinute[],DayType
3,5,Cumulative Day of Simulation[],Month[],Day of Month[],DST Indicator[1=yes 0=no],DayType  ! When Daily Report Variables Requested
4,2,Cumulative Days of Simulation[],Month[]  ! When Monthly Report Variables Requested
5,1,Cumulative Days of Simulation[] ! When Run Period Report Variables Requested
6,1,Calendar Year of Simulation[] ! When Annual Report Variables Requested
7,9,Environment,Site Outdoor Air Drybulb Temperature [C] !Monthly [Value,Min,Day,Hour,Minute,Max,Day,Hour,Minute]
8,1,Environment,Site Outdoor Air Wetbulb Temperature [C] !TimeStep
555,1,ALL_ST=SPORTS ARENA - COURT C4_FL=STORY 1_SCH=B,Zone Air Temperature [C] !Hourly
556,7,ALL_ST=SPORTS ARENA - COURT C4_FL=STORY 1_SCH=B,Zone Air Relative Humidity [%] !Daily [Value,Min,Hour,Minute,Max,Hour,Minute]
595,1,ALL_ST=SPORTS ARENA - RING_FL=STORY 1_SCH=B,Zone Air Temperature [C] !Hourly
596,7,ALL_ST=SPORTS ARENA - RING_FL=STORY 1_SCH=B,Zone Air Relative Humidity [%] !Daily [Value,Min,Hour,Minute,Max,Hour,Minute]
635,1,ALL_ST=STORAGE AREA - OCCSENS_FL=STORY 1_SCH=E,Zone Air Temperature [C] !Hourly
636,7,ALL_ST=STORAGE AREA - OCCSENS_FL=STORY 1_SCH=E,Zone Air Relative Humidity [%] !Daily [Value,Min,Hour,Minute,Max,Hour,Minute]
675,1,ALL_ST=STORAGE AREA - REFRIGERATED_FL=STORY 1_SCH=E,Zone Air Temperature [C] !Hourly
676,7,ALL_ST=STORAGE AREA - REFRIGERATED_FL=STORY 1_SCH=E,Zone Air Relative Humidity [%] !Daily [Value,Min,Hour,Minute,Max,Hour,Minute]
715,1,ALL_ST=STORAGE AREA_FL=STORY 1_SCH=E,Zone Air Temperature [C] !Hourly
716,7,ALL_ST=STORAGE AREA_FL=STORY 1_SCH=E,Zone Air Relative Humidity [%] !Daily [Value,Min,Hour,Minute,Max,Hour,Minute]
10,1,Electricity:Facility [J] !TimeStep
321,1,Gas:Facility [J] !TimeStep
End of Data Dictionary
1,FORT MCMURRAY AP ANN CLG .4% CONDNS DB=>MWB,  56.65,-111.22,  -7.00, 369.10
2,1, 7,21, 0, 1, 0.00,10.00,SummerDesignDay
8,14.218136923962174
10,56536003.43265136
321,35444306.31634533
2,1, 7,21, 0, 1,10.00,20.00,SummerDesignDay
8,14.171982153293495
10,55335598.50819892
321,35076325.146817337
2,1, 7,21, 0, 1,20.00,30.00,SummerDesignDay
8,14.125744780286427
10,55069966.092293668
321,51307780.563179049
2,1, 7,21, 0, 1,30.00,40.00,SummerDesignDay
8,14.079436086331978
10,54800436.26874289
321,36373630.62038401
2,1, 7,21, 0, 1,40.00,50.00,SummerDesignDay
8,14.033050387896898
10,54542448.62535556
321,35068596.340371679
2,1, 7,21, 0, 1,50.00,60.00,SummerDesignDay
8,13.986581233564835
10,54277451.33079112
321,41567637.285894948
2,1, 7,21, 0, 1, 0.00,60.00,SummerDesignDay
555,23.996978158751906
595,23.99590471337359
635,22.245558239841029
675,22.443803787979407
715,22.443803787979396
2,1, 7,21, 0, 2, 0.00,10.00,SummerDesignDay
8,13.95555882260429
10,27800609.80272203
321,36807698.22048457
2,1, 7,21, 0, 2,10.00,20.00,SummerDesignDay
8,13.924507755336454
10,27800609.80272203
321,33240428.320652225
2,1, 7,21, 0, 2,20.00,30.00,SummerDesignDay
8,13.893416042989206
10,27800609.80272203
321,33228102.843900715
2,1, 7,21, 0, 2,30.00,40.00,SummerDesignDay
8,13.862289589689029
10,27800609.80272203
321,33220589.04837395
2,1, 7,21, 0, 2,40.00,50.00,SummerDesignDay
8,13.831134407608739
10,27800609.80272203
321,33214563.030320206
2,1, 7,21, 0, 2,50.00,60.00,SummerDesignDay
8,13.799938415548118
10,27800609.80272203
321,33206862.1618624
2,1, 7,21, 0, 2, 0.00,60.00,SummerDesignDay
555,23.03024453862452
595,24.487117771684525
635,21.99498178626838
675,22.17548638635498
715,22.175486386355006
2,1, 7,21, 0, 3, 0.00,10.00,SummerDesignDay
8,13.776521671948676
10,8585769.724291886
321,9834385.965331089
2,1, 7,21, 0, 3,10.00,20.00,SummerDesignDay
8,13.753085235778466
10,8585769.724291886
321,250975.99331620028
2,1, 7,21, 0, 3,20.00,30.00,SummerDesignDay
8,13.729636002354969
10,8662446.784193477
321,11300859.233289654
2,1, 7,21, 0, 3,30.00,40.00,SummerDesignDay
8,13.706147375533054
10,8585769.724291886
321,4168875.6122779438
2,1, 7,21, 0, 3,40.00,50.00,SummerDesignDay
8,13.682651961920304
10,8585769.724291886
321,12000.0
2,1, 7,21, 0, 3,50.00,60.00,SummerDesignDay
8,13.659136670643687
10,8585769.724291886
321,553534.5200135677
2,1, 7,21, 0, 3, 0.00,60.00,SummerDesignDay
555,21.33133310295716
595,22.846952397687919
635,21.751178471213739
675,21.8866674418959
715,21.886667441895935
2,1, 7,21, 0, 4, 0.00,10.00,SummerDesignDay
8,13.63560137410855
10,8585769.724291886
321,14557285.477369437
2,1, 7,21, 0, 4,10.00,20.00,SummerDesignDay
8,13.612040802606578
10,8585769.724291886
321,12000.0
2,1, 7,21, 0, 4,20.00,30.00,SummerDesignDay
8,13.58846620506876
10,8585769.724291886
321,12000.0
2,1, 7,21, 0, 4,30.00,40.00,SummerDesignDay
8,13.56487178447336
10,8585769.724291886
321,569350.7840038568
2,1, 7,21, 0, 4,40.00,50.00,SummerDesignDay
8,13.541257354069103
10,8585769.724291886
321,14543206.242284796
2,1, 7,21, 0, 4,50.00,60.00,SummerDesignDay
8,13.517617463812285
10,8585769.724291886
321,12000.0
2,1, 7,21, 0, 4, 0.00,60.00,SummerDesignDay
555,20.144553377724895
595,21.12305510661041
635,21.466557576582848
675,21.50784868769344
715,21.50784868769347
2,1, 7,21, 0, 5, 0.00,10.00,SummerDesignDay
8,13.50185415824011
10,8585769.724291886
321,12000.0
2,1, 7,21, 0, 5,10.00,20.00,SummerDesignDay
8,13.486076034032447
10,8585769.724291886
321,14611584.069035517
2,1, 7,21, 0, 5,20.00,30.00,SummerDesignDay
8,13.470289340350983
10,8585769.724291886
321,12000.0
2,1, 7,21, 0, 5,30.00,40.00,SummerDesignDay
8,13.454493322631063
10,8585769.724291886
321,12000.0
2,1, 7,21, 0, 5,40.00,50.00,SummerDesignDay
8,13.438688835118548
10,8585769.724291886
321,12000.0
2,1, 7,21, 0, 5,50.00,60.00,SummerDesignDay
8,13.422888173889437
10,8585769.724291886
321,14561620.964583118
2,1, 7,21, 0, 5, 0.00,60.00,SummerDesignDay
555,19.498746777304129
595,20.265429702330115
635,21.14297858170173
675,21.08310796136173
715,21.08310796136178
2,1, 7,21, 0, 6, 0.00,10.00,SummerDesignDay
8,13.438688835118548
10,8585769.724291886
321,12000.0
2,1, 7,21, 0, 6,10.00,20.00,SummerDesignDay
8,13.454493322631063
10,8585769.724291886
321,12000.0
2,1, 7,21, 0, 6,20.00,30.00,SummerDesignDay
8,13.470289340350983
10,8585769.724291886
321,14623700.834957974
2,1, 7,21, 0, 6,30.00,40.00,SummerDesignDay
8,13.486076034032447
10,8585769.724291886
321,12000.0
2,1, 7,21, 0, 6,40.00,50.00,SummerDesignDay
8,13.50185415824011
10,8585769.724291886
321,12000.0
2,1, 7,21, 0, 6,50.00,60.00,SummerDesignDay
8,13.517617463812285
10,8585769.724291886
321,12000.0
2,1, 7,21, 0, 6, 0.00,60.00,SummerDesignDay
555,19.24503938834909
595,19.9372368968922
635,20.919542712073356
675,20.806283518128415
715,20.80628351812845
2,1, 7,21, 0, 7, 0.00,10.00,SummerDesignDay
8,13.572736920571789
10,8585769.724291886
321,14575217.579854519
2,1, 7,21, 0, 7,10.00,20.00,SummerDesignDay
8,13.627748229152554
10,8585769.724291886
321,12000.0
2,1, 7,21, 0, 7,20.00,30.00,SummerDesignDay
8,13.682651961920304
10,8585769.724291886
321,12000.0
2,1, 7,21, 0, 7,30.00,40.00,SummerDesignDay
8,13.737448093244995
10,8585769.724291886
321,14629146.056500612
2,1, 7,21, 0, 7,40.00,50.00,SummerDesignDay
8,13.792137011831216
10,8585769.724291886
321,12000.0
2,1, 7,21, 0, 7,50.00,60.00,SummerDesignDay
8,13.846719282840333
10,8585769.724291886
321,12000.0
2,1, 7,21, 0, 7, 0.00,60.00,SummerDesignDay
555,19.33789124956618
595,19.99492677570358
635,20.837410670011395
675,20.71082350625956
715,20.71082350625956
2,1, 7,21, 0, 8, 0.00,10.00,SummerDesignDay
8,13.978831900527043
10,8585769.724291886
321,12000.0
2,1, 7,21, 0, 8,10.00,20.00,SummerDesignDay
8,14.110321014287419
10,8585769.724291886
321,14589147.995575244
2,1, 7,21, 0, 8,20.00,30.00,SummerDesignDay
8,14.241191509616986
10,8585769.724291886
321,12000.0
2,1, 7,21, 0, 8,30.00,40.00,SummerDesignDay
8,14.371447531304272
10,8585769.724291886
321,12000.0
2,1, 7,21, 0, 8,40.00,50.00,SummerDesignDay
8,14.501093766564925
10,8585769.724291886
321,6495720.924378213
2,1, 7,21, 0, 8,50.00,60.00,SummerDesignDay
8,14.630134792273804
10,8585769.724291886
321,8087695.179168963
2,1, 7,21, 0, 8, 0.00,60.00,SummerDesignDay
555,19.92016365216776
595,20.543268446382667
635,20.958472759935114
675,20.855821747927725
715,20.855821747927718
2,1, 7,21, 0, 9, 0.00,10.00,SummerDesignDay
8,14.773641492809972
10,17583741.575148666
321,28804665.00296271
2,1, 7,21, 0, 9,10.00,20.00,SummerDesignDay
8,14.91640948124148
10,17566392.80713375
321,17721503.885311467
2,1, 7,21, 0, 9,20.00,30.00,SummerDesignDay
8,15.05843890714102
10,17531695.27110392
321,14610575.635038812
2,1, 7,21, 0, 9,30.00,40.00,SummerDesignDay
8,15.199735893563798
10,17531695.27110392
321,12000.0
2,1, 7,21, 0, 9,40.00,50.00,SummerDesignDay
8,15.340306256439395
10,17707747.877435894
321,12000.0
2,1, 7,21, 0, 9,50.00,60.00,SummerDesignDay
8,15.48015101768072
10,17695164.605043275
321,14612377.435574823
2,1, 7,21, 0, 9, 0.00,60.00,SummerDesignDay
555,20.99275718056991
595,21.580999855835306
635,22.327708865354624
675,22.345550117812328
715,22.345550117812328
2,1, 7,21, 0,10, 0.00,10.00,SummerDesignDay
8,15.60467292907716
10,44549287.517592567
321,42685484.98364957
2,1, 7,21, 0,10,10.00,20.00,SummerDesignDay
8,15.72862731650033
10,44967656.38293807
321,56449060.07923329
2,1, 7,21, 0,10,20.00,30.00,SummerDesignDay
8,15.852017409284228
10,47431793.04651712
321,56741558.03589548
2,1, 7,21, 0,10,30.00,40.00,SummerDesignDay
8,15.974848118364367
10,49243932.272321868
321,56282201.07277702
2,1, 7,21, 0,10,40.00,50.00,SummerDesignDay
8,16.097123145563505
10,55195529.957571867
321,41948378.408716868
2,1, 7,21, 0,10,50.00,60.00,SummerDesignDay
8,16.218846351168599
10,58157168.33515652
321,51830316.222472447
2,1, 7,21, 0,10, 0.00,60.00,SummerDesignDay
555,23.27369452210877
595,23.6994396832972
635,23.420324664026439
675,23.503475375210944
715,23.503475375210955
2,1, 7,21, 0,11, 0.00,10.00,SummerDesignDay
8,16.325793027093189
10,75640297.43711928
321,56711407.71759489
2,1, 7,21, 0,11,10.00,20.00,SummerDesignDay
8,16.432322158488288
10,78081457.91457027
321,56755845.98094366
2,1, 7,21, 0,11,20.00,30.00,SummerDesignDay
8,16.538424180249178
10,78984469.35888192
321,56751248.40781917
2,1, 7,21, 0,11,30.00,40.00,SummerDesignDay
8,16.644108396469087
10,79902188.19514358
321,43827767.57559509
2,1, 7,21, 0,11,40.00,50.00,SummerDesignDay
8,16.749376736593655
10,80713479.99156429
321,50754713.251401
2,1, 7,21, 0,11,50.00,60.00,SummerDesignDay
8,16.854232613237156
10,81460254.78376483
321,56762884.79158291
2,1, 7,21, 0,11, 0.00,60.00,SummerDesignDay
555,23.998268579261219
595,23.99765200257956
635,23.97037569213011
675,23.999612127818226
715,23.99961212781825
2,1, 7,21, 0,12, 0.00,10.00,SummerDesignDay
8,16.92390823520069
10,96487675.20663695
321,34145861.44224429
2,1, 7,21, 0,12,10.00,20.00,SummerDesignDay
8,16.99340178950456
10,96704407.24551377
321,33780827.84997231
2,1, 7,21, 0,12,20.00,30.00,SummerDesignDay
8,17.06272006743463
10,97158391.58731455
321,33779985.722476
2,1, 7,21, 0,12,30.00,40.00,SummerDesignDay
8,17.131853229172639
10,97607011.58685327
321,33779498.716377358
2,1, 7,21, 0,12,40.00,50.00,SummerDesignDay
8,17.200807172194087
10,97996806.53454957
321,33779037.30215703
2,1, 7,21, 0,12,50.00,60.00,SummerDesignDay
8,17.269582116758607
10,98365949.63597411
321,33778576.17730691
2,1, 7,21, 0,12, 0.00,60.00,SummerDesignDay
555,23.996723885589419
595,23.99605874592721
635,24.019167748573478
675,23.999564556226259
715,23.999564556226276
2,1, 7,21, 0,13, 0.00,10.00,SummerDesignDay
8,17.32447360221357
10,102206241.47239343
321,40218735.100845377
2,1, 7,21, 0,13,10.00,20.00,SummerDesignDay
8,17.379251291230806
10,102907089.8811134
321,48564654.151521507
2,1, 7,21, 0,13,20.00,30.00,SummerDesignDay
8,17.433921312061729
10,103290958.04134558
321,35593812.88075678
2,1, 7,21, 0,13,30.00,40.00,SummerDesignDay
8,17.488473222557489
10,103680098.06591882
321,53406630.31748953
2,1, 7,21, 0,13,40.00,50.00,SummerDesignDay
8,17.542913447755134
10,104036523.5789179
321,35580851.81206364
2,1, 7,21, 0,13,50.00,60.00,SummerDesignDay
8,17.59724609886134
10,104371687.07809703
321,45450328.938042107
2,1, 7,21, 0,13, 0.00,60.00,SummerDesignDay
555,23.994481072953737
595,23.994492701444448
635,24.026567859078726
675,23.999531229447613
715,23.99953122944765
2,1, 7,21, 0,14, 0.00,10.00,SummerDesignDay
8,17.6311450462694
10,103727268.38065358
321,45772784.7472437
2,1, 7,21, 0,14,10.00,20.00,SummerDesignDay
8,17.665000449016245
10,104097963.92069745
321,56441735.55887742
2,1, 7,21, 0,14,20.00,30.00,SummerDesignDay
8,17.698812743128934
10,104284643.43748589
321,56437061.31055904
2,1, 7,21, 0,14,30.00,40.00,SummerDesignDay
8,17.732582050940107
10,104468078.24863246
321,55004921.09235546
2,1, 7,21, 0,14,40.00,50.00,SummerDesignDay
8,17.766307345121004
10,104646770.85104645
321,39456914.72189566
2,1, 7,21, 0,14,50.00,60.00,SummerDesignDay
8,17.79999023167558
10,104822389.78662212
321,56031102.59929749
2,1, 7,21, 0,14, 0.00,60.00,SummerDesignDay
555,23.993353912856866
595,23.99362648691141
635,24.029254788900685
675,23.99942201704977
715,23.99942201704977
2,1, 7,21, 0,15, 0.00,10.00,SummerDesignDay
8,17.79999023167558
10,102190502.53684117
321,56008017.136303979
2,1, 7,21, 0,15,10.00,20.00,SummerDesignDay
8,17.79999023167558
10,102058405.17111676
321,55958273.50456357
2,1, 7,21, 0,15,20.00,30.00,SummerDesignDay
8,17.79999023167558
10,102014375.36611213
321,37294285.418988969
2,1, 7,21, 0,15,30.00,40.00,SummerDesignDay
8,17.79999023167558
10,101968992.87329442
321,55965231.95115763
2,1, 7,21, 0,15,40.00,50.00,SummerDesignDay
8,17.79999023167558
10,101935040.61733057
321,55959366.47181746
2,1, 7,21, 0,15,50.00,60.00,SummerDesignDay
8,17.79999023167558
10,101906010.74652905
321,50525389.483136
2,1, 7,21, 0,15, 0.00,60.00,SummerDesignDay
555,23.99489919525561
595,23.994550850543225
635,24.024938493770578
675,23.99932074139589
715,23.999320741395875
2,1, 7,21, 0,16, 0.00,10.00,SummerDesignDay
8,17.759562446305357
10,98989818.01385449
321,39596826.53385718
2,1, 7,21, 0,16,10.00,20.00,SummerDesignDay
8,17.71907809634183
10,98216172.03729493
321,34287627.444351498
2,1, 7,21, 0,16,20.00,30.00,SummerDesignDay
8,17.67853788661001
10,97937816.44674078
321,34294612.809773508
2,1, 7,21, 0,16,30.00,40.00,SummerDesignDay
8,17.63791796367351
10,97646551.4591052
321,34301161.55479912
2,1, 7,21, 0,16,40.00,50.00,SummerDesignDay
8,17.59724609886134
10,97375181.77505397
321,34307626.39372456
2,1, 7,21, 0,16,50.00,60.00,SummerDesignDay
8,17.55650676726033
10,97118716.7952333
321,34314045.120424788
2,1, 7,21, 0,16, 0.00,60.00,SummerDesignDay
555,23.997193717329855
595,23.99647436689801
635,24.028540633538655
675,23.99922209486373
715,23.999222094863737
2,1, 7,21, 0,17, 0.00,10.00,SummerDesignDay
8,17.50209486331892
10,96788242.9169288
321,33449178.012493966
2,1, 7,21, 0,17,10.00,20.00,SummerDesignDay
8,17.447570789624618
10,96285378.49016056
321,33352641.731481539
2,1, 7,21, 0,17,20.00,30.00,SummerDesignDay
8,17.392929544208135
10,95975097.49481674
321,33351964.634923784
2,1, 7,21, 0,17,30.00,40.00,SummerDesignDay
8,17.33818013976614
10,95699674.93130896
321,33351703.136145887
2,1, 7,21, 0,17,40.00,50.00,SummerDesignDay
8,17.283317298559309
10,95433266.88038266
321,33351377.198220798
2,1, 7,21, 0,17,50.00,60.00,SummerDesignDay
8,17.22833552437677
10,95170372.95907143
321,31425313.33033811
2,1, 7,21, 0,17, 0.00,60.00,SummerDesignDay
555,23.998191362514775
595,23.99758412968289
635,24.035924131543255
675,23.99912341674157
715,23.99912341674162
2,1, 7,21, 0,18, 0.00,10.00,SummerDesignDay
8,17.159453019160176
10,95782519.15366745
321,17975343.90384776
2,1, 7,21, 0,18,10.00,20.00,SummerDesignDay
8,17.090391773337136
10,95366141.04868508
321,32149156.548687594
2,1, 7,21, 0,18,20.00,30.00,SummerDesignDay
8,17.021151077964786
10,95054302.99896816
321,16058307.931200345
2,1, 7,21, 0,18,30.00,40.00,SummerDesignDay
8,16.951729380464653
10,94756264.70087074
321,32150061.68252267
2,1, 7,21, 0,18,40.00,50.00,SummerDesignDay
8,16.882126503829249
10,94444731.62432064
321,16058242.55827661
2,1, 7,21, 0,18,50.00,60.00,SummerDesignDay
8,16.812341807494034
10,94136058.11083573
321,32150145.541866378
2,1, 7,21, 0,18, 0.00,60.00,SummerDesignDay
555,23.99815370945109
595,23.997658850235724
635,24.033619854492746
675,23.999071227406036
715,23.999071227406078
2,1, 7,21, 0,19, 0.00,10.00,SummerDesignDay
8,16.707321072823203
10,80438165.4626393
321,16293126.633281475
2,1, 7,21, 0,19,10.00,20.00,SummerDesignDay
8,16.601881826644556
10,79961151.53677713
321,32647233.165019547
2,1, 7,21, 0,19,20.00,30.00,SummerDesignDay
8,16.496030555252849
10,79467458.95312181
321,31648774.521632919
2,1, 7,21, 0,19,30.00,40.00,SummerDesignDay
8,16.389760181474104
10,78973629.49110088
321,17329952.86317204
2,1, 7,21, 0,19,40.00,50.00,SummerDesignDay
8,16.283067654262039
10,78480856.82087335
321,32647062.61445355
2,1, 7,21, 0,19,50.00,60.00,SummerDesignDay
8,16.17595057957811
10,77972808.75139958
321,30116645.214059187
2,1, 7,21, 0,19, 0.00,60.00,SummerDesignDay
555,23.99672477371523
595,23.996347169407256
635,23.970078095367808
675,23.999706163557766
715,23.99970616355782
2,1, 7,21, 0,20, 0.00,10.00,SummerDesignDay
8,16.097123145563505
10,69359021.77669157
321,29799962.76690514
2,1, 7,21, 0,20,10.00,20.00,SummerDesignDay
8,16.018070242471564
10,69460875.10454317
321,33266981.07724262
2,1, 7,21, 0,20,20.00,30.00,SummerDesignDay
8,15.938779752340516
10,69246247.11912059
321,33246460.315882658
2,1, 7,21, 0,20,30.00,40.00,SummerDesignDay
8,15.85926152575189
10,69042728.0288099
321,33238903.67265027
2,1, 7,21, 0,20,40.00,50.00,SummerDesignDay
8,15.779503718563929
10,68820782.17259157
321,33231611.46897624
2,1, 7,21, 0,20,50.00,60.00,SummerDesignDay
8,15.699515709672767
10,68585729.44606133
321,33224183.574257919
2,1, 7,21, 0,20, 0.00,60.00,SummerDesignDay
555,23.993924657028303
595,23.993943872331625
635,23.858258537966156
675,23.999328583319188
715,23.999328583319238
2,1, 7,21, 0,21, 0.00,10.00,SummerDesignDay
8,15.63389147320404
10,68384997.45407667
321,47860012.48863071
2,1, 7,21, 0,21,10.00,20.00,SummerDesignDay
8,15.56810827419793
10,68879494.63496211
321,56839161.98419785
2,1, 7,21, 0,21,20.00,30.00,SummerDesignDay
8,15.502170882753524
10,68687781.6730891
321,56834674.99225381
2,1, 7,21, 0,21,30.00,40.00,SummerDesignDay
8,15.436068032613852
10,68499079.78047873
321,56829958.394801657
2,1, 7,21, 0,21,40.00,50.00,SummerDesignDay
8,15.369804371206009
10,68302794.95970422
321,49460136.330181058
2,1, 7,21, 0,21,50.00,60.00,SummerDesignDay
8,15.303384603594449
10,68096135.84108234
321,45248911.157237309
2,1, 7,21, 0,21, 0.00,60.00,SummerDesignDay
555,23.99223139437977
595,23.99240806929414
635,23.570790712044457
675,23.772845316097777
715,23.772845316097805
2,1, 7,21, 0,22, 0.00,10.00,SummerDesignDay
8,15.236797685071274
10,67884727.13201726
321,56844020.155601527
2,1, 7,21, 0,22,10.00,20.00,SummerDesignDay
8,15.170047891787942
10,67663867.05941876
321,56837786.20098995
2,1, 7,21, 0,22,20.00,30.00,SummerDesignDay
8,15.103134826860483
10,67435321.18591503
321,56833044.60964334
2,1, 7,21, 0,22,30.00,40.00,SummerDesignDay
8,15.036063385178485
10,67202540.64469542
321,56828271.054733138
2,1, 7,21, 0,22,40.00,50.00,SummerDesignDay
8,14.968821767219835
10,66966242.59302351
321,44724634.94791744
2,1, 7,21, 0,22,50.00,60.00,SummerDesignDay
8,14.90141525878635
10,66729613.49410938
321,49986180.58961164
2,1, 7,21, 0,22, 0.00,60.00,SummerDesignDay
555,23.991664883437286
595,23.99172996850945
635,23.221796334095303
675,23.428828632140485
715,23.428828632140499
2,1, 7,21, 0,23, 0.00,10.00,SummerDesignDay
8,14.848873673278373
10,63199508.39415643
321,58980074.41271017
2,1, 7,21, 0,23,10.00,20.00,SummerDesignDay
8,14.796237168136719
10,63106773.198177758
321,59230551.57254005
2,1, 7,21, 0,23,20.00,30.00,SummerDesignDay
8,14.743494321455645
10,62854023.48334868
321,60678116.21535136
2,1, 7,21, 0,23,30.00,40.00,SummerDesignDay
8,14.690649975253665
10,62591204.34625361
321,62241696.04330877
2,1, 7,21, 0,23,40.00,50.00,SummerDesignDay
8,14.637704281233117
10,62343948.29423345
321,62261686.920456919
2,1, 7,21, 0,23,50.00,60.00,SummerDesignDay
8,14.584656914839757
10,62102857.39495471
321,62281547.32799276
2,1, 7,21, 0,23, 0.00,60.00,SummerDesignDay
555,23.993850993231776
595,23.993301491556605
635,22.856882747372099
675,23.066064271974566
715,23.066064271974587
2,1, 7,21, 0,24, 0.00,10.00,SummerDesignDay
8,14.531507212058875
10,59477721.618272308
321,62301437.87231279
2,1, 7,21, 0,24,10.00,20.00,SummerDesignDay
8,14.47825496413355
10,59124888.80861559
321,62321363.713257897
2,1, 7,21, 0,24,20.00,30.00,SummerDesignDay
8,14.4249000133173
10,58853152.36290792
321,62154851.38401819
2,1, 7,21, 0,24,30.00,40.00,SummerDesignDay
8,14.371447531304272
10,58572987.20612114
321,59186401.802844088
2,1, 7,21, 0,24,40.00,50.00,SummerDesignDay
8,14.31788619902223
10,58302192.743283729
321,59189404.96497623
2,1, 7,21, 0,24,50.00,60.00,SummerDesignDay
8,14.264220970176066
10,58034566.52170871
321,59192472.49936187
2,1, 7,21, 0,24, 0.00,60.00,SummerDesignDay
555,23.99572774322645
595,23.99479980304909
635,22.535695132579833
675,22.741845719189823
715,22.74184571918985
3,1, 7,21, 0,SummerDesignDay
556,57.90191311334524,50.19813146790902,10,10,63.02381535238363,14,60
596,53.6208087242042,47.75673591862341,10,20,59.009312257142578, 6,50
636,51.87440063276449,47.15285523572324,10,50,55.60025224154303, 7,30
676,51.23937481037776,46.70469088500827,10,50,55.8789853713871, 7,30
716,51.239374810377778,46.70469088500834,10,50,55.87898537138709, 7,30
4,1, 7
7,22.2505,16.5,21, 5,60,28.9,21,14,60
1,FORT MCMURRAY AP ANN HTG 99.6% CONDNS DB,  56.65,-111.22,  -7.00, 369.10
2,1, 1,21, 0, 1, 0.00,10.00,WinterDesignDay
8,-36.2
10,47084844.95321184
321,396592037.8381216
2,1, 1,21, 0, 1,10.00,20.00,WinterDesignDay
8,-36.2
10,47084844.95321184
321,417591718.92371585
2,1, 1,21, 0, 1,20.00,30.00,WinterDesignDay
8,-36.2
10,47084844.95321184
321,406211555.7949625
2,1, 1,21, 0, 1,30.00,40.00,WinterDesignDay
8,-36.2
10,47015537.68726758
321,410992131.62674179
2,1, 1,21, 0, 1,40.00,50.00,WinterDesignDay
8,-36.2
10,47084844.95321184
321,417964376.90230879
2,1, 1,21, 0, 1,50.00,60.00,WinterDesignDay
8,-36.2
10,47015528.48985321
321,399654027.74377688
2,1, 1,21, 0, 1, 0.00,60.00,WinterDesignDay
555,22.00000016813252
595,21.995355945290716
635,18.259082194942584
675,18.485300309516548
715,18.485300309516587
2,1, 1,21, 0, 2, 0.00,10.00,WinterDesignDay
8,-36.2
10,27800647.05724609
321,436864316.4506685
2,1, 1,21, 0, 2,10.00,20.00,WinterDesignDay
8,-36.2
10,27800641.230354925
321,431212813.7275863
2,1, 1,21, 0, 2,20.00,30.00,WinterDesignDay
8,-36.2
10,27870004.87478169
321,426885174.472114
2,1, 1,21, 0, 2,30.00,40.00,WinterDesignDay
8,-36.2
10,27800636.010165965
321,427138882.9601398
2,1, 1,21, 0, 2,40.00,50.00,WinterDesignDay
8,-36.2
10,27800634.02668097
321,444875634.87408688
2,1, 1,21, 0, 2,50.00,60.00,WinterDesignDay
8,-36.2
10,27800632.509756455
321,427569627.90351429
2,1, 1,21, 0, 2, 0.00,60.00,WinterDesignDay
555,21.99999944895825
595,21.998195485751809
635,18.16734502087191
675,18.374495161656787
715,18.37449516165682
2,1, 1,21, 0, 3, 0.00,10.00,WinterDesignDay
8,-36.2
10,8585769.724291886
321,349125200.07966426
2,1, 1,21, 0, 3,10.00,20.00,WinterDesignDay
8,-36.2
10,8585769.724291886
321,366323161.3292074
2,1, 1,21, 0, 3,20.00,30.00,WinterDesignDay
8,-36.2
10,8585769.724291886
321,353459033.48861888
2,1, 1,21, 0, 3,30.00,40.00,WinterDesignDay
8,-36.2
10,8585769.724291886
321,363388013.02902618
2,1, 1,21, 0, 3,40.00,50.00,WinterDesignDay
8,-36.2
10,8585777.25385422
321,384571736.8204124
2,1, 1,21, 0, 3,50.00,60.00,WinterDesignDay
8,-36.2
10,8585769.724291886
321,388085941.812695
2,1, 1,21, 0, 3, 0.00,60.00,WinterDesignDay
555,19.400522743247998
595,18.827210947442095
635,18.07378627986202
675,18.217898676471646
715,18.21789867647169
2,1, 1,21, 0, 4, 0.00,10.00,WinterDesignDay
8,-36.2
10,8655164.796351547
321,381553635.64041039
2,1, 1,21, 0, 4,10.00,20.00,WinterDesignDay
8,-36.2
10,8585775.895745473
321,399706143.3112328
2,1, 1,21, 0, 4,20.00,30.00,WinterDesignDay
8,-36.2
10,8585773.683220344
321,386230982.5378218
2,1, 1,21, 0, 4,30.00,40.00,WinterDesignDay
8,-36.2
10,8585772.868081605
321,387010475.8932189
2,1, 1,21, 0, 4,40.00,50.00,WinterDesignDay
8,-36.2
10,8585772.285855648
321,402366658.0186677
2,1, 1,21, 0, 4,50.00,60.00,WinterDesignDay
8,-36.2
10,8585771.820088288
321,388198639.75156918
2,1, 1,21, 0, 4, 0.00,60.00,WinterDesignDay
555,18.000013377631448
595,17.999849962211063
635,18.02870359125428
675,18.002813629346599
715,18.002813629346624
2,1, 1,21, 0, 5, 0.00,10.00,WinterDesignDay
8,-36.2
10,8585771.5872005
321,388538919.155345
2,1, 1,21, 0, 5,10.00,20.00,WinterDesignDay
8,-36.2
10,8585771.354320314
321,403466719.36401537
2,1, 1,21, 0, 5,20.00,30.00,WinterDesignDay
8,-36.2
10,8585771.121446774
321,389043732.8318606
2,1, 1,21, 0, 5,30.00,40.00,WinterDesignDay
8,-36.2
10,8585771.005007199
321,389209213.09118309
2,1, 1,21, 0, 5,40.00,50.00,WinterDesignDay
8,-36.2
10,8585770.888570235
321,403991314.1690959
2,1, 1,21, 0, 5,50.00,60.00,WinterDesignDay
8,-36.2
10,8585770.772135642
321,389461782.4594291
2,1, 1,21, 0, 5, 0.00,60.00,WinterDesignDay
555,18.00000124111499
595,17.999937823312384
635,18.06581522048619
675,17.99997873519836
715,17.999978735198384
2,1, 1,21, 0, 6, 0.00,10.00,WinterDesignDay
8,-36.2
10,8585770.655703186
321,389528715.09731689
2,1, 1,21, 0, 6,10.00,20.00,WinterDesignDay
8,-36.2
10,8585770.655698128
321,404253319.58568206
2,1, 1,21, 0, 6,20.00,30.00,WinterDesignDay
8,-36.2
10,8585770.655693073
321,389671138.4288473
2,1, 1,21, 0, 6,30.00,40.00,WinterDesignDay
8,-36.2
10,8585770.539263778
321,389710597.1238054
2,1, 1,21, 0, 6,40.00,50.00,WinterDesignDay
8,-36.2
10,8585770.539259907
321,404415875.3257246
2,1, 1,21, 0, 6,50.00,60.00,WinterDesignDay
8,-36.2
10,8585770.539256039
321,389806111.5414393
2,1, 1,21, 0, 6, 0.00,60.00,WinterDesignDay
555,17.999999703178366
595,17.999959870270826
635,18.08406283565046
675,17.99998151367272
715,17.999981513672755
2,1, 1,21, 0, 7, 0.00,10.00,WinterDesignDay
8,-36.2
10,8585770.53925217
321,389822465.63991507
2,1, 1,21, 0, 7,10.00,20.00,WinterDesignDay
8,-36.2
10,8585770.5392483
321,404511853.026609
2,1, 1,21, 0, 7,20.00,30.00,WinterDesignDay
8,-36.2
10,8585770.539244432
321,389885104.2675506
2,1, 1,21, 0, 7,30.00,40.00,WinterDesignDay
8,-36.2
10,8585770.539240566
321,389882568.6406955
2,1, 1,21, 0, 7,40.00,50.00,WinterDesignDay
8,-36.2
10,8585770.422816247
321,404559360.3577647
2,1, 1,21, 0, 7,50.00,60.00,WinterDesignDay
8,-36.2
10,8585770.422813407
321,389920357.3885374
2,1, 1,21, 0, 7, 0.00,60.00,WinterDesignDay
555,18.000000420173327
595,17.999966403580843
635,18.09241116813804
675,17.99998312953883
715,17.999983129538874
2,1, 1,21, 0, 8, 0.00,10.00,WinterDesignDay
8,-36.2
10,8655164.796351547
321,461194347.3748762
2,1, 1,21, 0, 8,10.00,20.00,WinterDesignDay
8,-36.2
10,8603119.015091546
321,420100291.660575
2,1, 1,21, 0, 8,20.00,30.00,WinterDesignDay
8,-36.2
10,8585770.537509794
321,386592558.4153384
2,1, 1,21, 0, 8,30.00,40.00,WinterDesignDay
8,-36.2
10,8585770.537506376
321,405770158.28945747
2,1, 1,21, 0, 8,40.00,50.00,WinterDesignDay
8,-36.2
10,8585770.53750296
321,405494389.29275688
2,1, 1,21, 0, 8,50.00,60.00,WinterDesignDay
8,-36.2
10,8585770.537499544
321,413343740.23057177
2,1, 1,21, 0, 8, 0.00,60.00,WinterDesignDay
555,18.000000324224805
595,17.999976082096997
635,19.88680637121409
675,19.851677858773614
715,19.851677858773603
2,1, 1,21, 0, 9, 0.00,10.00,WinterDesignDay
8,-36.2
10,17601090.34316358
321,534674418.15177246
2,1, 1,21, 0, 9,10.00,20.00,WinterDesignDay
8,-36.2
10,17601090.34316358
321,485149476.938685
2,1, 1,21, 0, 9,20.00,30.00,WinterDesignDay
8,-36.2
10,17566393.096631119
321,446562500.095839
2,1, 1,21, 0, 9,30.00,40.00,WinterDesignDay
8,-36.2
10,17601090.34316358
321,421091651.8092151
2,1, 1,21, 0, 9,40.00,50.00,WinterDesignDay
8,-36.2
10,17531695.27110392
321,440775265.8845471
2,1, 1,21, 0, 9,50.00,60.00,WinterDesignDay
8,-36.2
10,17531695.27110392
321,420436725.3288556
2,1, 1,21, 0, 9, 0.00,60.00,WinterDesignDay
555,19.95475884862813
595,19.977541764452636
635,21.764747869367665
675,21.79521998352006
715,21.795219983520015
2,1, 1,21, 0,10, 0.00,10.00,WinterDesignDay
8,-36.2
10,44437603.35886896
321,519505653.4750859
2,1, 1,21, 0,10,10.00,20.00,WinterDesignDay
8,-36.2
10,44414472.20741145
321,467292792.87076976
2,1, 1,21, 0,10,20.00,30.00,WinterDesignDay
8,-36.2
10,44414478.50126316
321,466037263.5208281
2,1, 1,21, 0,10,30.00,40.00,WinterDesignDay
8,-36.2
10,44414480.51511024
321,461448352.6982528
2,1, 1,21, 0,10,40.00,50.00,WinterDesignDay
8,-36.2
10,44483866.60457546
321,458227006.5753884
2,1, 1,21, 0,10,50.00,60.00,WinterDesignDay
8,-36.2
10,44414491.979068379
321,456839237.4847264
2,1, 1,21, 0,10, 0.00,60.00,WinterDesignDay
555,21.952293217309163
595,21.97217183061765
635,22.038906985815414
675,21.99999728425615
715,21.99999728425614
2,1, 1,21, 0,11, 0.00,10.00,WinterDesignDay
8,-36.2
10,59133883.94101625
321,440148117.67240378
2,1, 1,21, 0,11,10.00,20.00,WinterDesignDay
8,-36.2
10,59133890.8368133
321,443585882.8636061
2,1, 1,21, 0,11,20.00,30.00,WinterDesignDay
8,-36.2
10,59203244.099111709
321,444009995.0568858
2,1, 1,21, 0,11,30.00,40.00,WinterDesignDay
8,-36.2
10,59133900.42731239
321,440301148.6846602
2,1, 1,21, 0,11,40.00,50.00,WinterDesignDay
8,-36.2
10,59133904.01763976
321,434204234.2528267
2,1, 1,21, 0,11,50.00,60.00,WinterDesignDay
8,-36.2
10,59203244.099111709
321,433745164.5805483
2,1, 1,21, 0,11, 0.00,60.00,WinterDesignDay
555,22.000000027271374
595,21.99799697616238
635,22.040855326001489
675,21.999999686359798
715,21.99999968635984
2,1, 1,21, 0,12, 0.00,10.00,WinterDesignDay
8,-36.2
10,68741361.59386072
321,386583110.2566265
2,1, 1,21, 0,12,10.00,20.00,WinterDesignDay
8,-36.2
10,68810664.13832677
321,396548049.83982446
2,1, 1,21, 0,12,20.00,30.00,WinterDesignDay
8,-36.2
10,68741355.70800631
321,394492229.0531439