Program Version,EnergyPlus, Version 8.9.0-eba93e8e1b, YMD=2019.03.28 13:38
1,5,Environment Title[],Latitude[deg],Longitude[deg],Time Zone[],Elevation[m]
2,8,Day of Simulation[],Month[],Day of Month[],DST Indicator[1=yes 0=no],Hour[],StartMinute[],EndMinute[],DayType
3,5,Cumulative Day of Simulation[],Month[],Day of Month[],DST Indicator[1=yes 0=no],DayType  ! When Daily Report Variables Requested
4,2,Cumulative Days of Simulation[],Month[]  ! When Monthly Report Variables Requested
5,1,Cumulative Days of Simulation[] ! When Run Period Report Variables Requested
6,1,Calendar Year of Simulation[] ! When Annual Report Variables Requested
7,9,Environment,Site Outdoor Air Drybulb Temperature [C] !Monthly [Value,Min,Day,Hour,Minute,Max,Day,Hour,Minute]
8,1,Environment,Site Outdoor Air Wetbulb Temperature [C] !TimeStep
927,1,WHOLEBUILDING-AUTOMOTIVE FACILITY ZN,Zone Air Temperature [C] !Hourly
928,7,WHOLEBUILDING-AUTOMOTIVE FACILITY ZN,Zone Air Relative Humidity [%] !Daily [Value,Min,Hour,Minute,Max,Hour,Minute]
967,1,WHOLEBUILDING-CONVENTION CENTRE ZN,Zone Air Temperature [C] !Hourly
968,7,WHOLEBUILDING-CONVENTION CENTRE ZN,Zone Air Relative Humidity [%] !Daily [Value,Min,Hour,Minute,Max,Hour,Minute]
1007,1,WHOLEBUILDING-COURTHOUSE ZN,Zone Air Temperature [C] !Hourly
1008,7,WHOLEBUILDING-COURTHOUSE ZN,Zone Air Relative Humidity [%] !Daily [Value,Min,Hour,Minute,Max,Hour,Minute]
1047,1,WHOLEBUILDING-DINING - BAR LOUNGE/LEISURE ZN,Zone Air Temperature [C] !Hourly
1048,7,WHOLEBUILDING-DINING - BAR LOUNGE/LEISURE ZN,Zone Air Relative Humidity [%] !Daily [Value,Min,Hour,Minute,Max,Hour,Minute]
1087,1,WHOLEBUILDING-DINING - CAFETERIA/FAST FOOD ZN,Zone Air Temperature [C] !Hourly
1088,7,WHOLEBUILDING-DINING - CAFETERIA/FAST FOOD ZN,Zone Air Relative Humidity [%] !Daily [Value,Min,Hour,Minute,Max,Hour,Minute]
1127,1,WHOLEBUILDING-DINING - FAMILY ZN,Zone Air Temperature [C] !Hourly
1128,7,WHOLEBUILDING-DINING - FAMILY ZN,Zone Air Relative Humidity [%] !Daily [Value,Min,Hour,Minute,Max,Hour,Minute]
1167,1,WHOLEBUILDING-DORMITORY ZN,Zone Air Temperature [C] !Hourly
1168,7,WHOLEBUILDING-DORMITORY ZN,Zone Air Relative Humidity [%] !Daily [Value,Min,Hour,Minute,Max,Hour,Minute]
1207,1,WHOLEBUILDING-EXERCISE CENTRE ZN,Zone Air Temperature [C] !Hourly
1208,7,WHOLEBUILDING-EXERCISE CENTRE ZN,Zone Air Relative Humidity [%] !Daily [Value,Min,Hour,Minute,Max,Hour,Minute]
1247,1,WHOLEBUILDING-FIRE STATION ZN,Zone Air Temperature [C] !Hourly
1248,7,WHOLEBUILDING-FIRE STATION ZN,Zone Air Relative Humidity [%] !Daily [Value,Min,Hour,Minute,Max,Hour,Minute]
1287,1,WHOLEBUILDING-GYMNASIUM ZN,Zone Air Temperature [C] !Hourly
1288,7,WHOLEBUILDING-GYMNASIUM ZN,Zone Air Relative Humidity [%] !Daily [Value,Min,Hour,Minute,Max,Hour,Minute]
1327,1,WHOLEBUILDING-HEALTH CARE CLINIC ZN,Zone Air Temperature [C] !Hourly
1328,7,WHOLEBUILDING-HEALTH CARE CLINIC ZN,Zone Air Relative Humidity [%] !Daily [Value,Min,Hour,Minute,Max,Hour,Minute]
1367,1,WHOLEBUILDING-HOSPITAL ZN,Zone Air Temperature [C] !Hourly
1368,7,WHOLEBUILDING-HOSPITAL ZN,Zone Air Relative Humidity [%] !Daily [Value,Min,Hour,Minute,Max,Hour,Minute]
1407,1,WHOLEBUILDING-HOTEL/MOTEL ZN,Zone Air Temperature [C] !Hourly
1408,7,WHOLEBUILDING-HOTEL/MOTEL ZN,Zone Air Relative Humidity [%] !Daily [Value,Min,Hour,Minute,Max,Hour,Minute]
1447,1,WHOLEBUILDING-LIBRARY ZN,Zone Air Temperature [C] !Hourly
1448,7,WHOLEBUILDING-LIBRARY ZN,Zone Air Relative Humidity [%] !Daily [Value,Min,Hour,Minute,Max,Hour,Minute]
1487,1,WHOLEBUILDING-LONG-TERM CARE - DWELLING UNITS ZN,Zone Air Temperature [C] !Hourly
1488,7,WHOLEBUILDING-LONG-TERM CARE - DWELLING UNITS ZN,Zone Air Relative Humidity [%] !Daily [Value,Min,Hour,Minute,Max,Hour,Minute]
1527,1,WHOLEBUILDING-LONG-TERM CARE - OTHER ZN,Zone Air Temperature [C] !Hourly
1528,7,WHOLEBUILDING-LONG-TERM CARE - OTHER ZN,Zone Air Relative Humidity [%] !Daily [Value,Min,Hour,Minute,Max,Hour,Minute]
1567,1,WHOLEBUILDING-MANUFACTURING FACILITY ZN,Zone Air Temperature [C] !Hourly
1568,7,WHOLEBUILDING-MANUFACTURING FACILITY ZN,Zone Air Relative Humidity [%] !Daily [Value,Min,Hour,Minute,Max,Hour,Minute]
1607,1,WHOLEBUILDING-MOTION PICTURE THEATRE ZN,Zone Air Temperature [C] !Hourly
1608,7,WHOLEBUILDING-MOTION PICTURE THEATRE ZN,Zone Air Relative Humidity [%] !Daily [Value,Min,Hour,Minute,Max,Hour,Minute]
1647,1,WHOLEBUILDING-MULTI-UNIT RESIDENTIAL BUILDING ZN,Zone Air Temperature [C] !Hourly
1648,7,WHOLEBUILDING-MULTI-UNIT RESIDENTIAL BUILDING ZN,Zone Air Relative Humidity [%] !Daily [Value,Min,Hour,Minute,Max,Hour,Minute]
1687,1,WHOLEBUILDING-MUSEUM ZN,Zone Air Temperature [C] !Hourly
1688,7,WHOLEBUILDING-MUSEUM ZN,Zone Air Relative Humidity [%] !Daily [Value,Min,Hour,Minute,Max,Hour,Minute]
10,1,Electricity:Facility [J] !TimeStep
1838,1,DistrictCooling:Facility [J] !TimeStep
1801,1,DistrictHeating:Facility [J] !TimeStep
End of Data Dictionary
1,FORT MCMURRAY AP ANN CLG .4% CONDNS DB=>MWB,  56.65,-111.22,  -7.00, 369.10
2,1, 7,21, 0, 1, 0.00,10.00,SummerDesignDay
8,14.218136923962174
10,109619698.69649151
1801,0.0
1838,58950370.85743843
2,1, 7,21, 0, 1,10.00,20.00,SummerDesignDay
8,14.171982153293495
10,109619698.69649151
1801,0.0
1838,54538670.74974521
2,1, 7,21, 0, 1,20.00,30.00,SummerDesignDay
8,14.125744780286427
10,109619698.69649151
1801,0.0
1838,50642803.092938538
2,1, 7,21, 0, 1,30.00,40.00,SummerDesignDay
8,14.079436086331978
10,109619698.69649151
1801,0.0
1838,46777895.02561675
2,1, 7,21, 0, 1,40.00,50.00,SummerDesignDay
8,14.033050387896898
10,109619698.69649151
1801,0.0
1838,42951695.766371499
2,1, 7,21, 0, 1,50.00,60.00,SummerDesignDay
8,13.986581233564835
10,109619698.69649151
1801,0.0
1838,39922390.005580078
2,1, 7,21, 0, 1, 0.00,60.00,SummerDesignDay
927,22.517016874477546
967,24.319602083583989
1007,25.625748274439727
1047,24.000000000000015
1087,24.0
1127,23.998102289208608
1167,24.000000000000015
1207,24.00000000000001
1247,23.76052438356794
1287,24.000000000000015
1327,22.36168964023281
1367,23.99831256782429
1407,24.00000000000001
1447,23.660398034546046
1487,24.000000000000005
1527,24.00000000000003
1567,24.87645526974894
1607,23.424844367583373
1647,24.00000000000001
1687,24.781507178496697
2,1, 7,21, 0, 2, 0.00,10.00,SummerDesignDay
8,13.95555882260429
10,73611867.42587237
1801,0.0
1838,14935710.830446788
2,1, 7,21, 0, 2,10.00,20.00,SummerDesignDay
8,13.924507755336454
10,73611867.42587237
1801,0.0
1838,14056116.855031992
2,1, 7,21, 0, 2,20.00,30.00,SummerDesignDay
8,13.893416042989206
10,73611867.42587237
1801,0.0
1838,13578998.656003468
2,1, 7,21, 0, 2,30.00,40.00,SummerDesignDay
8,13.862289589689029
10,73611867.42587237
1801,0.0
1838,13121917.478893754
2,1, 7,21, 0, 2,40.00,50.00,SummerDesignDay
8,13.831134407608739
10,73611867.42587237
1801,0.0
1838,12680504.826997783
2,1, 7,21, 0, 2,50.00,60.00,SummerDesignDay
8,13.799938415548118
10,73611867.42587237
1801,0.0
1838,12245008.212532087
2,1, 7,21, 0, 2, 0.00,60.00,SummerDesignDay
927,22.12830827690354
967,24.106154169476807
1007,25.4332904330026
1047,23.913970202472446
1087,23.63793733197505
1127,23.321677200670327
1167,24.000000000000015
1207,23.816502975275744
1247,23.487317232590269
1287,23.580694019286129
1327,22.052243334832345
1367,23.851102200925597
1407,23.968629206455316
1447,23.467371944224614
1487,24.0
1527,24.633283383965943
1567,24.593500364310257
1607,23.237410253636459
1647,24.000000000000015
1687,24.620027565572575
2,1, 7,21, 0, 3, 0.00,10.00,SummerDesignDay
8,13.776521671948676
10,44066133.76811019
1801,0.0
1838,11860912.906812314
2,1, 7,21, 0, 3,10.00,20.00,SummerDesignDay
8,13.753085235778466
10,44066133.76811019
1801,0.0
1838,11473111.133290675
2,1, 7,21, 0, 3,20.00,30.00,SummerDesignDay
8,13.729636002354969
10,44066133.76811019
1801,0.0
1838,11079758.411849365
2,1, 7,21, 0, 3,30.00,40.00,SummerDesignDay
8,13.706147375533054
10,44066133.76811019
1801,0.0
1838,10681352.196428985
2,1, 7,21, 0, 3,40.00,50.00,SummerDesignDay
8,13.682651961920304
10,44066133.76811019
1801,0.0
1838,10278835.917125468
2,1, 7,21, 0, 3,50.00,60.00,SummerDesignDay
8,13.659136670643687
10,44066133.76811019
1801,0.0
1838,9834383.507702822
2,1, 7,21, 0, 3, 0.00,60.00,SummerDesignDay
927,21.745794869741727
967,23.885082393724376
1007,25.242879929560549
1047,23.326307198153676
1087,22.913914940940676
1127,22.131082249786656
1167,24.00000000000001
1207,23.23889173256001
1247,23.298587524936325
1287,22.52868995706005
1327,21.7897824930733
1367,23.53788716350728
1407,23.76357312567708
1447,23.280525332784177
1487,23.99999999999999
1527,24.625240096213145
1567,24.32001550047403
1607,23.052732311466284
1647,24.000000000000005
1687,24.461663983379393
2,1, 7,21, 0, 4, 0.00,10.00,SummerDesignDay
8,13.63560137410855
10,42364515.58792216
1801,0.0
1838,9438370.66735699
2,1, 7,21, 0, 4,10.00,20.00,SummerDesignDay
8,13.612040802606578
10,42364515.58792216
1801,0.0
1838,9089711.577788122
2,1, 7,21, 0, 4,20.00,30.00,SummerDesignDay
8,13.58846620506876
10,42364515.58792216
1801,0.0
1838,8740563.916770794
2,1, 7,21, 0, 4,30.00,40.00,SummerDesignDay
8,13.56487178447336
10,42364515.58792216
1801,0.0
1838,8391267.763333356
2,1, 7,21, 0, 4,40.00,50.00,SummerDesignDay
8,13.541257354069103
10,42364515.58792216
1801,0.0
1838,8042107.663628299
2,1, 7,21, 0, 4,50.00,60.00,SummerDesignDay
8,13.517617463812285
10,42364515.58792216
1801,0.0
1838,7693310.784894086
2,1, 7,21, 0, 4, 0.00,60.00,SummerDesignDay
927,21.403418732332779
967,23.664566497619974
1007,25.070909268231245
1047,22.98338812584254
1087,22.567639606554143
1127,21.506917984392897
1167,24.000000000000005
1207,22.9214128831932
1247,23.110474579198514
1287,21.874202840881364
1327,21.563745249666366
1367,23.24240412162182
1407,23.391585259712455
1447,23.109741797258196
1487,23.968856020069553
1527,24.38251209106492
1567,24.059968462404574
1607,22.89079302382895
1647,24.000000000000019
1687,24.323112397673787
2,1, 7,21, 0, 5, 0.00,10.00,SummerDesignDay
8,13.50185415824011
10,42364515.58792216
1801,0.0
1838,7378203.771176077
2,1, 7,21, 0, 5,10.00,20.00,SummerDesignDay
8,13.486076034032447
10,42364515.58792216
1801,0.0
1838,7445906.947786358
2,1, 7,21, 0, 5,20.00,30.00,SummerDesignDay
8,13.470289340350983
10,42364515.58792216
1801,0.0
1838,7463350.437039848
2,1, 7,21, 0, 5,30.00,40.00,SummerDesignDay
8,13.454493322631063
10,42364515.58792216
1801,0.0
1838,7480861.213880481
2,1, 7,21, 0, 5,40.00,50.00,SummerDesignDay
8,13.438688835118548
10,42364515.58792216
1801,0.0
1838,7453393.397670827
2,1, 7,21, 0, 5,50.00,60.00,SummerDesignDay
8,13.422888173889437
10,42364515.58792216
1801,0.0
1838,7347648.226708861
2,1, 7,21, 0, 5, 0.00,60.00,SummerDesignDay
927,21.173609378489233
967,23.442569495986889
1007,25.017382662141217
1047,22.8202083181865
1087,22.361200060449549
1127,21.222315171529205
1167,24.000000000000005
1207,22.719042994644309
1247,22.96684438810905
1287,21.562228501242953
1327,21.358728268799444
1367,23.220176429569635
1407,23.253192379918187
1447,22.94639784497196
1487,23.87587802370821
1527,24.21300523725462
1567,23.809185217330819
1607,22.739813284710853
1647,24.00000000000001
1687,24.30474446446769
2,1, 7,21, 0, 6, 0.00,10.00,SummerDesignDay
8,13.438688835118548
10,43771276.64958555
1801,0.0
1838,7299041.740508875
2,1, 7,21, 0, 6,10.00,20.00,SummerDesignDay
8,13.454493322631063
10,43771276.64958555
1801,0.0
1838,7178129.370756127
2,1, 7,21, 0, 6,20.00,30.00,SummerDesignDay
8,13.470289340350983
10,43771276.64958555
1801,0.0
1838,7006878.730441626
2,1, 7,21, 0, 6,30.00,40.00,SummerDesignDay
8,13.486076034032447
10,43771276.64958555
1801,0.0
1838,11561450.180413623
2,1, 7,21, 0, 6,40.00,50.00,SummerDesignDay
8,13.50185415824011
10,43771276.64958555
1801,0.0
1838,12063197.181398344
2,1, 7,21, 0, 6,50.00,60.00,SummerDesignDay
8,13.517617463812285
10,43771276.64958555
1801,0.0
1838,13937833.345912531
2,1, 7,21, 0, 6, 0.00,60.00,SummerDesignDay
927,21.27297271055834
967,23.278920900265449
1007,25.417672018719185
1047,22.800497364781394
1087,22.23870183364862
1127,21.260815846229904
1167,24.000000000000019
1207,22.616982283852037
1247,22.904441544376394
1287,21.6044311297905
1327,21.267810243698329
1367,23.893154367663216
1407,23.62757903977374
1447,22.833713964572046
1487,23.930201818865386
1527,24.10509025778816
1567,23.645289820623949
1607,22.634247065070907
1647,24.000000000000005
1687,24.724806466256465
2,1, 7,21, 0, 7, 0.00,10.00,SummerDesignDay
8,13.572736920571789
10,49490604.42188421
1801,0.0
1838,49795246.33048648
2,1, 7,21, 0, 7,10.00,20.00,SummerDesignDay
8,13.627748229152554
10,49490604.42188421
1801,0.0
1838,31103372.200714616
2,1, 7,21, 0, 7,20.00,30.00,SummerDesignDay
8,13.682651961920304
10,49490604.42188421
1801,0.0
1838,47357497.043757397
2,1, 7,21, 0, 7,30.00,40.00,SummerDesignDay
8,13.737448093244995
10,49490604.42188421
1801,0.0
1838,41137771.8265141
2,1, 7,21, 0, 7,40.00,50.00,SummerDesignDay
8,13.792137011831216
10,49490604.42188421
1801,0.0
1838,46369630.42373371
2,1, 7,21, 0, 7,50.00,60.00,SummerDesignDay
8,13.846719282840333
10,49490604.42188421
1801,0.0
1838,49409663.82652251
2,1, 7,21, 0, 7, 0.00,60.00,SummerDesignDay
927,21.728658979311367
967,23.241561292037898
1007,23.944940159289549
1047,22.817847642716904
1087,22.277085340514348
1127,21.66068509118901
1167,24.000000000000005
1207,22.673899802886344
1247,23.01025661813954
1287,22.00810659472351
1327,21.39129674796695
1367,23.99999988147862
1407,23.927988912483518
1447,22.834392223393054
1487,23.99960037981278
1527,24.092409838005879
1567,23.63863182483537
1607,22.63051432420765
1647,24.00000000000001
1687,25.2266951660571
2,1, 7,21, 0, 8, 0.00,10.00,SummerDesignDay
8,13.978831900527043
10,76345485.52089668
1801,9670465.777113414
1838,91537741.2282293
2,1, 7,21, 0, 8,10.00,20.00,SummerDesignDay
8,14.110321014287419
10,76345485.52089668
1801,0.0
1838,69731981.20612006
2,1, 7,21, 0, 8,20.00,30.00,SummerDesignDay
8,14.241191509616986
10,76345485.52089668
1801,0.0
1838,88673926.42691165
2,1, 7,21, 0, 8,30.00,40.00,SummerDesignDay
8,14.371447531304272
10,76345485.52089668
1801,0.0
1838,102707955.65671142
2,1, 7,21, 0, 8,40.00,50.00,SummerDesignDay
8,14.501093766564925
10,76345485.52089668
1801,0.0
1838,101536260.42447078
2,1, 7,21, 0, 8,50.00,60.00,SummerDesignDay
8,14.630134792273804
10,76345485.52089668
1801,0.0
1838,108117529.08494255
2,1, 7,21, 0, 8, 0.00,60.00,SummerDesignDay
927,22.730833569747376
967,23.372416156748256
1007,23.999999999995369
1047,23.09385975166336
1087,22.548837649681834
1127,22.60175757289974
1167,24.0
1207,22.95944958362921
1247,23.30906239068246
1287,22.9671639116185
1327,22.33471702836175
1367,24.000000000000026
1407,23.99999999964273
1447,22.992205218240384
1487,24.000000000000015
1527,24.211624340910296
1567,23.96711058012211
1607,22.766980046621453
1647,24.0
1687,23.844172023887827
2,1, 7,21, 0, 9, 0.00,10.00,SummerDesignDay
8,14.773641492809972
10,148156323.65155683
1801,0.0
1838,144272106.3284612
2,1, 7,21, 0, 9,10.00,20.00,SummerDesignDay
8,14.91640948124148
10,148156323.65155683
1801,0.0
1838,164717883.94530804
2,1, 7,21, 0, 9,20.00,30.00,SummerDesignDay
8,15.05843890714102
10,148156323.65155683
1801,0.0
1838,187930196.76497264
2,1, 7,21, 0, 9,30.00,40.00,SummerDesignDay
8,15.199735893563798
10,148156323.65155683
1801,0.0
1838,206171295.2624448
2,1, 7,21, 0, 9,40.00,50.00,SummerDesignDay
8,15.340306256439395
10,148156323.65155683
1801,0.0
1838,225396908.21894438
2,1, 7,21, 0, 9,50.00,60.00,SummerDesignDay
8,15.48015101768072
10,148156323.65155683
1801,0.0
1838,249778901.11279459
2,1, 7,21, 0, 9, 0.00,60.00,SummerDesignDay
927,23.98253939621144
967,23.960127939847657
1007,24.000000000000026
1047,23.75951592749006
1087,23.195503061167956
1127,23.917075628297856
1167,24.00000000000001
1207,23.618920641890055
1247,23.829716331940629
1287,23.991099307935646
1327,23.695871982969014
1367,24.000000000000033
1407,24.000000000000005
1447,23.85641260683993
1487,24.0
1527,23.988105431947746
1567,23.999999999998406
1607,23.638683326501888
1647,24.0
1687,23.999999999815186
2,1, 7,21, 0,10, 0.00,10.00,SummerDesignDay
8,15.60467292907716
10,204131908.9995675
1801,0.0
1838,305310987.4629123
2,1, 7,21, 0,10,10.00,20.00,SummerDesignDay
8,15.72862731650033
10,204131908.9995675
1801,0.0
1838,327318072.4397411
2,1, 7,21, 0,10,20.00,30.00,SummerDesignDay
8,15.852017409284228
10,204131908.9995675
1801,0.0
1838,348919592.47332277
2,1, 7,21, 0,10,30.00,40.00,SummerDesignDay
8,15.974848118364367
10,204131908.9995675
1801,0.0
1838,364980400.0296596
2,1, 7,21, 0,10,40.00,50.00,SummerDesignDay
8,16.097123145563505
10,204131908.9995675
1801,0.0
1838,382975204.2827071
2,1, 7,21, 0,10,50.00,60.00,SummerDesignDay
8,16.218846351168599
10,204131908.9995675
1801,0.0
1838,399708037.3777881
2,1, 7,21, 0,10, 0.00,60.00,SummerDesignDay
927,23.999999999969579
967,23.999999999996107
1007,24.000000000000033
1047,23.999961501209726
1087,23.956571263844876
1127,23.999999998571224
1167,24.000000000000005
1207,23.99912541524453
1247,23.999996029468709
1287,23.99999999998236
1327,23.999988291610959
1367,23.999999999999984
1407,24.000000000000026
1447,23.999999998993187
1487,24.00000000000001
1527,23.999999999996587
1567,24.00000000000004
1607,23.999978902974033
1647,24.000000000000005
1687,24.000000000000047
2,1, 7,21, 0,11, 0.00,10.00,SummerDesignDay
8,16.325793027093189
10,221797076.57122857
1801,0.0
1838,436823304.3178869
2,1, 7,21, 0,11,10.00,20.00,SummerDesignDay
8,16.432322158488288
10,221797076.57122857
1801,0.0
1838,452281145.5658911
2,1, 7,21, 0,11,20.00,30.00,SummerDesignDay
8,16.538424180249178
10,221797076.57122857
1801,0.0
1838,466393925.53544875
2,1, 7,21, 0,11,30.00,40.00,SummerDesignDay
8,16.644108396469087
10,221797076.57122857
1801,0.0
1838,480248362.19092527
2,1, 7,21, 0,11,40.00,50.00,SummerDesignDay
8,16.749376736593655
10,221797076.57122857
1801,0.0
1838,493845566.6761472
2,1, 7,21, 0,11,50.00,60.00,SummerDesignDay
8,16.854232613237156
10,221797076.57122857
1801,0.0
1838,507068069.47020247
2,1, 7,21, 0,11, 0.00,60.00,SummerDesignDay
927,24.000000000000019
967,24.000000000000026
1007,24.000000000000055
1047,23.99999999998779
1087,23.999999982517097
1127,23.999999999999969
1167,24.00000000000001
1207,23.9999999997425
1247,23.9999999999999
1287,24.000000000000047
1327,23.999999999894283
1367,24.000000000000015
1407,24.000000000000026
1447,24.00000000000003
1487,24.00000000000001
1527,24.00000000000001
1567,24.000000000000026
1607,23.99999999999986
1647,24.0
1687,24.000000000000015
2,1, 7,21, 0,12, 0.00,10.00,SummerDesignDay
8,16.92390823520069
10,234249350.3527897
1801,0.0
1838,533318586.59978839
2,1, 7,21, 0,12,10.00,20.00,SummerDesignDay
8,16.99340178950456
10,234249350.3527897
1801,0.0
1838,543933093.385317
2,1, 7,21, 0,12,20.00,30.00,SummerDesignDay
8,17.06272006743463
10,234249350.3527897
1801,0.0
1838,553848058.1156496
2,1, 7,21, 0,12,30.00,40.00,SummerDesignDay
8,17.131853229172639
10,234249350.3527897
1801,0.0
1838,563705913.0506555
2,1, 7,21, 0,12,40.00,50.00,SummerDesignDay
8,17.200807172194087
10,234249350.3527897
1801,0.0
1838,573381974.6480733
2,1, 7,21, 0,12,50.00,60.00,SummerDesignDay
8,17.269582116758607
10,234249350.3527897
1801,0.0
1838,582807922.2791334
2,1, 7,21, 0,12, 0.00,60.00,SummerDesignDay
927,24.000000000000005
967,24.000000000000019
1007,24.000000000000015
1047,24.0
1087,24.00000000000001
1127,24.00000000000004
1167,24.000000000000019
1207,24.000000000000019
1247,24.0
1287,24.000000000000047
1327,24.000000000000005
1367,23.999999999999969
1407,24.000000000000015
1447,23.999999999999998
1487,24.000000000000005
1527,23.999999999999984
1567,24.000000000000026
1607,24.00000000000004
1647,24.0
1687,24.000000000000026
2,1, 7,21, 0,13, 0.00,10.00,SummerDesignDay
8,17.32447360221357
10,231759945.9780702
1801,0.0
1838,606181868.2908642
2,1, 7,21, 0,13,10.00,20.00,SummerDesignDay
8,17.379251291230806
10,231759945.9780702
1801,0.0
1838,614630713.3211866
2,1, 7,21, 0,13,20.00,30.00,SummerDesignDay
8,17.433921312061729
10,231759945.9780702
1801,0.0
1838,622651940.8587883
2,1, 7,21, 0,13,30.00,40.00,SummerDesignDay
8,17.488473222557489
10,231759945.9780702
1801,0.0
1838,630484320.5737232
2,1, 7,21, 0,13,40.00,50.00,SummerDesignDay
8,17.542913447755134
10,231759945.9780702
1801,0.0
1838,637907372.3052788
2,1, 7,21, 0,13,50.00,60.00,SummerDesignDay
8,17.59724609886134
10,231759945.9780702
1801,0.0
1838,644824271.7706415
2,1, 7,21, 0,13, 0.00,60.00,SummerDesignDay
927,23.999999999999976
967,24.000000000000047
1007,24.000000000000015
1047,24.000000000000033
1087,23.999999999999984
1127,24.000000000000087
1167,24.000000000000033
1207,24.0
1247,23.999999999999998
1287,24.000000000000026
1327,24.000000000000015
1367,24.000000000000019
1407,24.000000000000015
1447,24.000000000000019
1487,24.00000000000001
1527,24.000000000000015
1567,24.00000000000003
1607,24.000000000000005
1647,24.000000000000015
1687,24.00000000000004
2,1, 7,21, 0,14, 0.00,10.00,SummerDesignDay
8,17.6311450462694
10,231759945.9780702
1801,0.0
1838,645553985.4378452
2,1, 7,21, 0,14,10.00,20.00,SummerDesignDay
8,17.665000449016245
10,231759945.9780702
1801,0.0
1838,649723145.8110144
2,1, 7,21, 0,14,20.00,30.00,SummerDesignDay
8,17.698812743128934
10,231759945.9780702
1801,0.0
1838,653858948.87034
2,1, 7,21, 0,14,30.00,40.00,SummerDesignDay
8,17.732582050940107
10,231759945.9780702
1801,0.0
1838,657983118.900346
2,1, 7,21, 0,14,40.00,50.00,SummerDesignDay
8,17.766307345121004
10,231759945.9780702
1801,0.0
1838,662157629.7365855
2,1, 7,21, 0,14,50.00,60.00,SummerDesignDay
8,17.79999023167558
10,231759945.9780702
1801,0.0
1838,666366305.4554603
2,1, 7,21, 0,14, 0.00,60.00,SummerDesignDay
927,24.00000000000003
967,24.00000000000003
1007,24.000000000000069
1047,24.000000000000019
1087,24.0
1127,24.00000000000004
1167,24.00000000000003
1207,24.0
1247,24.0
1287,24.000000000000069
1327,24.00000000000001
1367,24.0
1407,24.000000000000033
1447,24.000000000000005
1487,24.0
1527,24.000000000000015
1567,24.000000000000015
1607,24.000000000000005
1647,24.0
1687,24.00000000000003
2,1, 7,21, 0,15, 0.00,10.00,SummerDesignDay
8,17.79999023167558
10,231928757.3054698
1801,0.0
1838,658808034.5309589
2,1, 7,21, 0,15,10.00,20.00,SummerDesignDay
8,17.79999023167558
10,231928757.3054698
1801,0.0
1838,659198101.2228544
2,1, 7,21, 0,15,20.00,30.00,SummerDesignDay
8,17.79999023167558
10,231928757.3054698
1801,0.0
1838,659697154.4546576
2,1, 7,21, 0,15,30.00,40.00,SummerDesignDay
8,17.79999023167558
10,231928757.3054698
1801,0.0
1838,660131674.4137379
2,1, 7,21, 0,15,40.00,50.00,SummerDesignDay
8,17.79999023167558
10,231928757.3054698
1801,0.0
1838,660468791.8360151
2,1, 7,21, 0,15,50.00,60.00,SummerDesignDay
8,17.79999023167558
10,231928757.3054698
1801,0.0
1838,660590903.4823082
2,1, 7,21, 0,15, 0.00,60.00,SummerDesignDay
927,24.00000000000007
967,24.000000000000015
1007,24.000000000000019
1047,24.00000000000003
1087,24.000000000000019
1127,24.00000000000006
1167,24.000000000000019
1207,24.000000000000005
1247,24.0
1287,24.00000000000003
1327,24.000000000000019
1367,24.00000000000003
1407,23.999999999999987
1447,24.000000000000019
1487,24.000000000000005
1527,24.000000000000033
1567,24.000000000000005
1607,24.0
1647,24.0
1687,24.000000000000019
2,1, 7,21, 0,16, 0.00,10.00,SummerDesignDay
8,17.759562446305357
10,231928757.3054698
1801,0.0
1838,646888804.2158347
2,1, 7,21, 0,16,10.00,20.00,SummerDesignDay
8,17.71907809634183
10,231928757.3054698
1801,0.0
1838,642141748.635312
2,1, 7,21, 0,16,20.00,30.00,SummerDesignDay
8,17.67853788661001
10,231928757.3054698
1801,0.0
1838,637047641.2303594
2,1, 7,21, 0,16,30.00,40.00,SummerDesignDay
8,17.63791796367351
10,231928757.3054698
1801,0.0
1838,631601151.5146606
2,1, 7,21, 0,16,40.00,50.00,SummerDesignDay
8,17.59724609886134
10,231928757.3054698
1801,0.0
1838,625936790.2027038
2,1, 7,21, 0,16,50.00,60.00,SummerDesignDay
8,17.55650676726033
10,231928757.3054698
1801,0.0
1838,620059214.8008835
2,1, 7,21, 0,16, 0.00,60.00,SummerDesignDay
927,24.000000000000069
967,24.000000000000015
1007,24.000000000000047
1047,24.00000000000003
1087,24.0
1127,23.999999999999987
1167,24.0
1207,24.000000000000005
1247,24.000000000000005
1287,23.999999999999976
1327,23.99999999999999
1367,24.000000000000019
1407,23.999999999999998
1447,24.0
1487,24.00000000000001
1527,24.0
1567,23.999999999999948
1607,24.000000000000019
1647,24.00000000000001
1687,24.000000000000019
2,1, 7,21, 0,17, 0.00,10.00,SummerDesignDay
8,17.50209486331892
10,232604002.61506827
1801,0.0
1838,616596253.4837662
2,1, 7,21, 0,17,10.00,20.00,SummerDesignDay
8,17.447570789624618
10,232604002.61506827
1801,0.0
1838,609168946.6355339
2,1, 7,21, 0,17,20.00,30.00,SummerDesignDay
8,17.392929544208135
10,232604002.61506827
1801,0.0
1838,601536839.5121899
2,1, 7,21, 0,17,30.00,40.00,SummerDesignDay
8,17.33818013976614
10,232604002.61506827
1801,0.0
1838,593753182.1568391
2,1, 7,21, 0,17,40.00,50.00,SummerDesignDay
8,17.283317298559309
10,232604002.61506827
1801,0.0
1838,585801459.1327485
2,1, 7,21, 0,17,50.00,60.00,SummerDesignDay
8,17.22833552437677
10,232604002.61506827
1801,0.0
1838,577671386.825112
2,1, 7,21, 0,17, 0.00,60.00,SummerDesignDay
927,24.000000000000026
967,24.000000000000015
1007,23.999999999999987
1047,24.000000000000019
1087,23.999999999999998
1127,24.000000000000005
1167,24.000000000000019
1207,24.000000000000015
1247,24.0
1287,24.00000000000003
1327,23.99999999999999
1367,23.999999999999959
1407,24.000000000000015
1447,24.00000000000003
1487,24.00000000000001
1527,24.0
1567,24.000000000000033
1607,24.00000000000001
1647,24.000000000000015
1687,24.000000000000015
2,1, 7,21, 0,18, 0.00,10.00,SummerDesignDay
8,17.159453019160176
10,225971593.1296793
1801,0.0
1838,564461837.7581476
2,1, 7,21, 0,18,10.00,20.00,SummerDesignDay
8,17.090391773337136
10,225971593.1296793
1801,0.0
1838,554486305.7683492
2,1, 7,21, 0,18,20.00,30.00,SummerDesignDay
8,17.021151077964786
10,225971593.1296793
1801,0.0
1838,544327510.4081245
2,1, 7,21, 0,18,30.00,40.00,SummerDesignDay
8,16.951729380464653
10,225971593.1296793
1801,0.0
1838,534201242.1495985
2,1, 7,21, 0,18,40.00,50.00,SummerDesignDay
8,16.882126503829249
10,225971593.1296793
1801,0.0
1838,524162483.67247858
2,1, 7,21, 0,18,50.00,60.00,SummerDesignDay
8,16.812341807494034
10,225971593.1296793
1801,0.0
1838,514135959.1713257
2,1, 7,21, 0,18, 0.00,60.00,SummerDesignDay
927,24.000000000000015
967,24.000000000000026
1007,24.000000000000015
1047,24.0
1087,24.00000000000001
1127,24.00000000000004
1167,24.000000000000019
1207,24.000000000000033
1247,23.999999999999998
1287,24.000000000000019
1327,23.999999999999998
1367,24.00000000000007
1407,24.00000000000003
1447,24.000000000000019
1487,24.000000000000005
1527,23.99999999999999
1567,23.999999999999987
1607,24.000000000000026
1647,24.000000000000015
1687,23.999999999999987
2,1, 7,21, 0,19, 0.00,10.00,SummerDesignDay
8,16.707321072823203
10,201460188.39125643
1801,0.0
1838,486150148.7084882
2,1, 7,21, 0,19,10.00,20.00,SummerDesignDay
8,16.601881826644556
10,201460188.39125643
1801,0.0
1838,471374969.26819857
2,1, 7,21, 0,19,20.00,30.00,SummerDesignDay
8,16.496030555252849
10,201460188.39125643
1801,0.0
1838,457594799.5446009
2,1, 7,21, 0,19,30.00,40.00,SummerDesignDay
8,16.389760181474104
10,201460188.39125643
1801,0.0
1838,443957626.66569617
2,1, 7,21, 0,19,40.00,50.00,SummerDesignDay
8,16.283067654262039
10,201460188.39125643
1801,0.0
1838,430474760.93967226
2,1, 7,21, 0,19,50.00,60.00,SummerDesignDay
8,16.17595057957811
10,201460188.39125643
1801,0.0
1838,417109890.1306232
2,1, 7,21, 0,19, 0.00,60.00,SummerDesignDay
927,24.00000000000003
967,24.00000000000001
1007,24.000000000000015
1047,24.0
1087,24.0
1127,24.00000000000001
1167,24.000000000000019
1207,24.000000000000044
1247,24.000000000000005
1287,24.0
1327,24.000000000000005
1367,24.000000000000058
1407,24.00000000000001
1447,24.000000000000019
1487,24.000000000000015
1527,24.0
1567,23.999999999999987
1607,24.000000000000019
1647,24.000000000000019
1687,24.00000000000001
2,1, 7,21, 0,20, 0.00,10.00,SummerDesignDay
8,16.097123145563505
10,181722017.71912829
1801,0.0
1838,384358666.4908474
2,1, 7,21, 0,20,10.00,20.00,SummerDesignDay
8,16.018070242471564
10,181722017.71912829
1801,0.0
1838,374767233.08212146
2,1, 7,21, 0,20,20.00,30.00,SummerDesignDay
8,15.938779752340516
10,181722017.71912829
1801,0.0
1838,364989122.8899278
2,1, 7,21, 0,20,30.00,40.00,SummerDesignDay
8,15.85926152575189
10,181722017.71912829
1801,0.0
1838,354981812.8922852
2,1, 7,21, 0,20,40.00,50.00,SummerDesignDay
8,15.779503718563929
10,181722017.71912829
1801,0.0
1838,344658116.46169379
2,1, 7,21, 0,20,50.00,60.00,SummerDesignDay
8,15.699515709672767
10,181722017.71912829
1801,0.0
1838,333966128.0023445
2,1, 7,21, 0,20, 0.00,60.00,SummerDesignDay
927,25.074739855842087
967,24.00000000000001
1007,24.000000000000019
1047,24.000000000000019
1087,24.000000000000005
1127,24.000000000000005
1167,24.0
1207,24.000000000000019
1247,24.0
1287,24.000000000000019
1327,24.000000000000005
1367,23.99999999999997
1407,23.999999999999998
1447,24.000000000000015
1487,24.00000000000001
1527,24.00000000000001
1567,24.000000000000026
1607,24.0
1647,24.000000000000005
1687,24.0
2,1, 7,21, 0,21, 0.00,10.00,SummerDesignDay
8,15.63389147320404
10,176973542.6475189
1801,0.0
1838,323421796.9362135
2,1, 7,21, 0,21,10.00,20.00,SummerDesignDay
8,15.56810827419793
10,176973542.6475189
1801,0.0
1838,312971495.31741
2,1, 7,21, 0,21,20.00,30.00,SummerDesignDay
8,15.502170882753524
10,176973542.6475189
1801,0.0
1838,301964763.4940842
2,1, 7,21, 0,21,30.00,40.00,SummerDesignDay
8,15.436068032613852
10,176973542.6475189
1801,0.0
1838,290924115.7002508
2,1, 7,21, 0,21,40.00,50.00,SummerDesignDay
8,15.369804371206009
10,176973542.6475189
1801,0.0
1838,280509861.65882286
2,1, 7,21, 0,21,50.00,60.00,SummerDesignDay
8,15.303384603594449
10,176973542.6475189
1801,0.0
1838,269702119.6469116
2,1, 7,21, 0,21, 0.00,60.00,SummerDesignDay
927,24.828048398165476
967,24.000000000000019
1007,24.000000000000019
1047,24.00000000000004
1087,24.00000000000004
1127,24.000000000000044
1167,24.00000000000001
1207,24.000000000000044
1247,24.0
1287,24.000000000000044
1327,24.000000000000005