Program Version,EnergyPlus, Version 8.9.0-eba93e8e1b, YMD=2019.04.04 17:58
1,5,Environment Title[],Latitude[deg],Longitude[deg],Time Zone[],Elevation[m]
2,8,Day of Simulation[],Month[],Day of Month[],DST Indicator[1=yes 0=no],Hour[],StartMinute[],EndMinute[],DayType
3,5,Cumulative Day of Simulation[],Month[],Day of Month[],DST Indicator[1=yes 0=no],DayType  ! When Daily Report Variables Requested
4,2,Cumulative Days of Simulation[],Month[]  ! When Monthly Report Variables Requested
5,1,Cumulative Days of Simulation[] ! When Run Period Report Variables Requested
6,1,Calendar Year of Simulation[] ! When Annual Report Variables Requested
7,9,Environment,Site Outdoor Air Drybulb Temperature [C] !Monthly [Value,Min,Day,Hour,Minute,Max,Day,Hour,Minute]
8,1,Environment,Site Outdoor Air Wetbulb Temperature [C] !TimeStep
357,1,COURTHOUSE - CHAMBERS-SPACE FUNCTION ZN,Zone Air Temperature [C] !Hourly
358,7,COURTHOUSE - CHAMBERS-SPACE FUNCTION ZN,Zone Air Relative Humidity [%] !Daily [Value,Min,Hour,Minute,Max,Hour,Minute]
397,1,COURTHOUSE - COURTROOM-SPACE FUNCTION ZN,Zone Air Temperature [C] !Hourly
398,7,COURTHOUSE - COURTROOM-SPACE FUNCTION ZN,Zone Air Relative Humidity [%] !Daily [Value,Min,Hour,Minute,Max,Hour,Minute]
437,1,DINING - BAR LOUNGE/LEISURE-SPACE FUNCTION ZN,Zone Air Temperature [C] !Hourly
438,7,DINING - BAR LOUNGE/LEISURE-SPACE FUNCTION ZN,Zone Air Relative Humidity [%] !Daily [Value,Min,Hour,Minute,Max,Hour,Minute]
477,1,DINING - FAMILY SPACE-SPACE FUNCTION ZN,Zone Air Temperature [C] !Hourly
478,7,DINING - FAMILY SPACE-SPACE FUNCTION ZN,Zone Air Relative Humidity [%] !Daily [Value,Min,Hour,Minute,Max,Hour,Minute]
517,1,DINING - OTHER-SPACE FUNCTION ZN,Zone Air Temperature [C] !Hourly
518,7,DINING - OTHER-SPACE FUNCTION ZN,Zone Air Relative Humidity [%] !Daily [Value,Min,Hour,Minute,Max,Hour,Minute]
10,1,Electricity:Facility [J] !TimeStep
668,1,DistrictCooling:Facility [J] !TimeStep
631,1,DistrictHeating:Facility [J] !TimeStep
End of Data Dictionary
1,FORT MCMURRAY AP ANN CLG .4% CONDNS DB=>MWB,  56.65,-111.22,  -7.00, 369.10
2,1, 7,21, 0, 1, 0.00,10.00,SummerDesignDay
8,14.218136923962174
10,38919051.09698237
631,10304783.400185496
668,0.0
2,1, 7,21, 0, 1,10.00,20.00,SummerDesignDay
8,14.171982153293495
10,38919051.09698237
631,11796001.702804396
668,0.0
2,1, 7,21, 0, 1,20.00,30.00,SummerDesignDay
8,14.125744780286427
10,38919051.09698237
631,15160930.445665326
668,0.0
2,1, 7,21, 0, 1,30.00,40.00,SummerDesignDay
8,14.079436086331978
10,38919051.09698237
631,16857281.923321066
668,0.0
2,1, 7,21, 0, 1,40.00,50.00,SummerDesignDay
8,14.033050387896898
10,38919051.09698237
631,18877284.53909699
668,0.0
2,1, 7,21, 0, 1,50.00,60.00,SummerDesignDay
8,13.986581233564835
10,38919051.09698237
631,20882021.465256249
668,0.0
2,1, 7,21, 0, 1, 0.00,60.00,SummerDesignDay
357,22.885751473439627
397,20.38275026725795
437,22.046828963882687
477,22.000136834749769
517,22.000002929245825
2,1, 7,21, 0, 2, 0.00,10.00,SummerDesignDay
8,13.95555882260429
10,23754177.30598479
631,37592449.25064474
668,0.0
2,1, 7,21, 0, 2,10.00,20.00,SummerDesignDay
8,13.924507755336454
10,23754177.30598479
631,40041240.128543179
668,0.0
2,1, 7,21, 0, 2,20.00,30.00,SummerDesignDay
8,13.893416042989206
10,23754177.30598479
631,41452125.343837637
668,0.0
2,1, 7,21, 0, 2,30.00,40.00,SummerDesignDay
8,13.862289589689029
10,23754177.30598479
631,42946378.89894457
668,0.0
2,1, 7,21, 0, 2,40.00,50.00,SummerDesignDay
8,13.831134407608739
10,23754177.30598479
631,44354113.738887857
668,0.0
2,1, 7,21, 0, 2,50.00,60.00,SummerDesignDay
8,13.799938415548118
10,23754177.30598479
631,45723447.51547624
668,0.0
2,1, 7,21, 0, 2, 0.00,60.00,SummerDesignDay
357,22.422963212775334
397,19.821656706809674
437,22.000003793510598
477,22.000000008976845
517,22.000000000206439
2,1, 7,21, 0, 3, 0.00,10.00,SummerDesignDay
8,13.776521671948676
10,8589303.51498723
631,0.0
668,0.0
2,1, 7,21, 0, 3,10.00,20.00,SummerDesignDay
8,13.753085235778466
10,8589303.51498723
631,0.0
668,0.0
2,1, 7,21, 0, 3,20.00,30.00,SummerDesignDay
8,13.729636002354969
10,8589303.51498723
631,0.0
668,0.0
2,1, 7,21, 0, 3,30.00,40.00,SummerDesignDay
8,13.706147375533054
10,8589303.51498723
631,0.0
668,0.0
2,1, 7,21, 0, 3,40.00,50.00,SummerDesignDay
8,13.682651961920304
10,8589303.51498723
631,0.0
668,0.0
2,1, 7,21, 0, 3,50.00,60.00,SummerDesignDay
8,13.659136670643687
10,8589303.51498723
631,0.0
668,0.0
2,1, 7,21, 0, 3, 0.00,60.00,SummerDesignDay
357,22.092414444996306
397,19.441956878183907
437,19.950297061820124
477,19.92256945395985
517,19.863228248687294
2,1, 7,21, 0, 4, 0.00,10.00,SummerDesignDay
8,13.63560137410855
10,8589303.51498723
631,0.0
668,0.0
2,1, 7,21, 0, 4,10.00,20.00,SummerDesignDay
8,13.612040802606578
10,8589303.51498723
631,0.0
668,0.0
2,1, 7,21, 0, 4,20.00,30.00,SummerDesignDay
8,13.58846620506876
10,8589303.51498723
631,0.0
668,0.0
2,1, 7,21, 0, 4,30.00,40.00,SummerDesignDay
8,13.56487178447336
10,8589303.51498723
631,0.0
668,0.0
2,1, 7,21, 0, 4,40.00,50.00,SummerDesignDay
8,13.541257354069103
10,8589303.51498723
631,0.0
668,0.0
2,1, 7,21, 0, 4,50.00,60.00,SummerDesignDay
8,13.517617463812285
10,8589303.51498723
631,0.0
668,0.0
2,1, 7,21, 0, 4, 0.00,60.00,SummerDesignDay
357,21.578320914232334
397,18.996353380022979
437,18.464172882207234
477,18.408090889000474
517,18.35462603745633
2,1, 7,21, 0, 5, 0.00,10.00,SummerDesignDay
8,13.50185415824011
10,8589303.51498723
631,0.0
668,0.0
2,1, 7,21, 0, 5,10.00,20.00,SummerDesignDay
8,13.486076034032447
10,8589303.51498723
631,362081.8463895633
668,0.0
2,1, 7,21, 0, 5,20.00,30.00,SummerDesignDay
8,13.470289340350983
10,8589303.51498723
631,1680000.6563914247
668,0.0
2,1, 7,21, 0, 5,30.00,40.00,SummerDesignDay
8,13.454493322631063
10,8589303.51498723
631,2344548.1011000287
668,0.0
2,1, 7,21, 0, 5,40.00,50.00,SummerDesignDay
8,13.438688835118548
10,8589303.51498723
631,3572068.9061697016
668,0.0
2,1, 7,21, 0, 5,50.00,60.00,SummerDesignDay
8,13.422888173889437
10,8589303.51498723
631,4243170.751117691
668,0.0
2,1, 7,21, 0, 5, 0.00,60.00,SummerDesignDay
357,21.126043789698604
397,18.648702101560564
437,18.054551761854837
477,18.022595330873885
517,18.011400630138306
2,1, 7,21, 0, 6, 0.00,10.00,SummerDesignDay
8,13.438688835118548
10,8589303.51498723
631,3873748.8455272235
668,0.0
2,1, 7,21, 0, 6,10.00,20.00,SummerDesignDay
8,13.454493322631063
10,8589303.51498723
631,3433731.4350369928
668,0.0
2,1, 7,21, 0, 6,20.00,30.00,SummerDesignDay
8,13.470289340350983
10,8589303.51498723
631,2962167.5721048607
668,0.0
2,1, 7,21, 0, 6,30.00,40.00,SummerDesignDay
8,13.486076034032447
10,8589303.51498723
631,2467186.1471290888
668,0.0
2,1, 7,21, 0, 6,40.00,50.00,SummerDesignDay
8,13.50185415824011
10,8589303.51498723
631,1957811.734683334
668,0.0
2,1, 7,21, 0, 6,50.00,60.00,SummerDesignDay
8,13.517617463812285
10,8589303.51498723
631,1433174.8455954795
668,0.0
2,1, 7,21, 0, 6, 0.00,60.00,SummerDesignDay
357,20.844026683230636
397,18.497651043796698
437,18.000016594442429
477,18.000002221855668
517,18.0000007434647
2,1, 7,21, 0, 7, 0.00,10.00,SummerDesignDay
8,13.572736920571789
10,8589303.51498723
631,23715738.631617767
668,0.0
2,1, 7,21, 0, 7,10.00,20.00,SummerDesignDay
8,13.627748229152554
10,8589303.51498723
631,2865087.7920312548
668,0.0
2,1, 7,21, 0, 7,20.00,30.00,SummerDesignDay
8,13.682651961920304
10,8589303.51498723
631,13242958.211113874
668,0.0
2,1, 7,21, 0, 7,30.00,40.00,SummerDesignDay
8,13.737448093244995
10,8589303.51498723
631,3958176.9563302637
668,0.0
2,1, 7,21, 0, 7,40.00,50.00,SummerDesignDay
8,13.792137011831216
10,8589303.51498723
631,4210547.716873546
668,0.0
2,1, 7,21, 0, 7,50.00,60.00,SummerDesignDay
8,13.846719282840333
10,8589303.51498723
631,3799518.1275273428
668,0.0
2,1, 7,21, 0, 7, 0.00,60.00,SummerDesignDay
357,20.79345770285819
397,20.069373104990164
437,18.214923068144285
477,18.16297954868649
517,18.14899660778922
2,1, 7,21, 0, 8, 0.00,10.00,SummerDesignDay
8,13.978831900527043
10,19923584.184785546
631,54300887.61299235
668,0.0
2,1, 7,21, 0, 8,10.00,20.00,SummerDesignDay
8,14.110321014287419
10,19923584.184785546
631,3054884.9133061498
668,0.0
2,1, 7,21, 0, 8,20.00,30.00,SummerDesignDay
8,14.241191509616986
10,19923584.184785546
631,7196125.48036319
668,0.0
2,1, 7,21, 0, 8,30.00,40.00,SummerDesignDay
8,14.371447531304272
10,19923584.184785546
631,1447320.522415984
668,0.0
2,1, 7,21, 0, 8,40.00,50.00,SummerDesignDay
8,14.501093766564925
10,19923584.184785546
631,1191725.6572590227
668,0.0
2,1, 7,21, 0, 8,50.00,60.00,SummerDesignDay
8,14.630134792273804
10,19923584.184785546
631,106095.19472577577
668,0.0
2,1, 7,21, 0, 8, 0.00,60.00,SummerDesignDay
357,22.512762276156839
397,22.106777625265413
437,19.080749930704838
477,18.990574053967646
517,18.98280034641834
2,1, 7,21, 0, 9, 0.00,10.00,SummerDesignDay
8,14.773641492809972
10,46810860.41317912
631,15274020.091585963
668,0.0
2,1, 7,21, 0, 9,10.00,20.00,SummerDesignDay
8,14.91640948124148
10,46810860.41317912
631,0.0
668,10189120.3873897
2,1, 7,21, 0, 9,20.00,30.00,SummerDesignDay
8,15.05843890714102
10,46810860.41317912
631,0.0
668,25499034.010177435
2,1, 7,21, 0, 9,30.00,40.00,SummerDesignDay
8,15.199735893563798
10,46810860.41317912
631,0.0
668,36412322.889193538
2,1, 7,21, 0, 9,40.00,50.00,SummerDesignDay
8,15.340306256439395
10,46810860.41317912
631,0.0
668,41697885.81653996
2,1, 7,21, 0, 9,50.00,60.00,SummerDesignDay
8,15.48015101768072
10,46810860.41317912
631,0.0
668,44397346.53446095
2,1, 7,21, 0, 9, 0.00,60.00,SummerDesignDay
357,23.833616490151198
397,23.71999777810196
437,20.884847299972745
477,20.809958921383438
517,20.827582946175715
2,1, 7,21, 0,10, 0.00,10.00,SummerDesignDay
8,15.60467292907716
10,67353189.4498554
631,0.0
668,54532017.979884658
2,1, 7,21, 0,10,10.00,20.00,SummerDesignDay
8,15.72862731650033
10,67353189.4498554
631,0.0
668,57082740.65232454
2,1, 7,21, 0,10,20.00,30.00,SummerDesignDay
8,15.852017409284228
10,67353189.4498554
631,0.0
668,59064858.62850284
2,1, 7,21, 0,10,30.00,40.00,SummerDesignDay
8,15.974848118364367
10,67353189.4498554
631,0.0
668,60993462.49426111
2,1, 7,21, 0,10,40.00,50.00,SummerDesignDay
8,16.097123145563505
10,67353189.4498554
631,0.0
668,67539106.23315795
2,1, 7,21, 0,10,50.00,60.00,SummerDesignDay
8,16.218846351168599
10,67353189.4498554
631,0.0
668,82843844.43102977
2,1, 7,21, 0,10, 0.00,60.00,SummerDesignDay
357,23.999999999669158
397,23.999999950638068
437,23.274642723288097
477,23.066702404364823
517,23.03421714290162
2,1, 7,21, 0,11, 0.00,10.00,SummerDesignDay
8,16.325793027093189
10,74935626.3453542
631,0.0
668,103060276.97606686
2,1, 7,21, 0,11,10.00,20.00,SummerDesignDay
8,16.432322158488288
10,74935626.3453542
631,0.0
668,110871252.78166804
2,1, 7,21, 0,11,20.00,30.00,SummerDesignDay
8,16.538424180249178
10,74935626.3453542
631,0.0
668,120504789.11035347
2,1, 7,21, 0,11,30.00,40.00,SummerDesignDay
8,16.644108396469087
10,74935626.3453542
631,0.0
668,128981437.03895962
2,1, 7,21, 0,11,40.00,50.00,SummerDesignDay
8,16.749376736593655
10,74935626.3453542
631,0.0
668,137151918.30701677
2,1, 7,21, 0,11,50.00,60.00,SummerDesignDay
8,16.854232613237156
10,74935626.3453542
631,0.0
668,145127453.55447788
2,1, 7,21, 0,11, 0.00,60.00,SummerDesignDay
357,24.000000000000005
397,24.000000000000015
437,23.999945866103947
477,23.99855030327284
517,23.99770759197284
2,1, 7,21, 0,12, 0.00,10.00,SummerDesignDay
8,16.92390823520069
10,82518063.24085298
631,0.0
668,166605018.5638594
2,1, 7,21, 0,12,10.00,20.00,SummerDesignDay
8,16.99340178950456
10,82518063.24085298
631,0.0
668,173399098.5017488
2,1, 7,21, 0,12,20.00,30.00,SummerDesignDay
8,17.06272006743463
10,82518063.24085298
631,0.0
668,178697829.09968395
2,1, 7,21, 0,12,30.00,40.00,SummerDesignDay
8,17.131853229172639
10,82518063.24085298
631,0.0
668,184093108.51032574
2,1, 7,21, 0,12,40.00,50.00,SummerDesignDay
8,17.200807172194087
10,82518063.24085298
631,0.0
668,189366886.8821743
2,1, 7,21, 0,12,50.00,60.00,SummerDesignDay
8,17.269582116758607
10,82518063.24085298
631,0.0
668,194124638.4010697
2,1, 7,21, 0,12, 0.00,60.00,SummerDesignDay
357,24.000000000000026
397,24.000000000000058
437,23.999999996070217
477,23.999999879795227
517,23.99999979921374
2,1, 7,21, 0,13, 0.00,10.00,SummerDesignDay
8,17.32447360221357
10,82518063.24085298
631,0.0
668,200543287.5025703
2,1, 7,21, 0,13,10.00,20.00,SummerDesignDay
8,17.379251291230806
10,82518063.24085298
631,0.0
668,203977609.4108342
2,1, 7,21, 0,13,20.00,30.00,SummerDesignDay
8,17.433921312061729
10,82518063.24085298
631,0.0
668,206977823.06310625
2,1, 7,21, 0,13,30.00,40.00,SummerDesignDay
8,17.488473222557489
10,82518063.24085298
631,0.0
668,209856138.3118601
2,1, 7,21, 0,13,40.00,50.00,SummerDesignDay
8,17.542913447755134
10,82518063.24085298
631,0.0
668,212747474.98716045
2,1, 7,21, 0,13,50.00,60.00,SummerDesignDay
8,17.59724609886134
10,82518063.24085298
631,0.0
668,215640646.2328533
2,1, 7,21, 0,13, 0.00,60.00,SummerDesignDay
357,23.999999999999984
397,24.0
437,23.999999999999745
477,23.999999999991315
517,23.9999999999846
2,1, 7,21, 0,14, 0.00,10.00,SummerDesignDay
8,17.6311450462694
10,82518063.24085298
631,0.0
668,215433638.0544095
2,1, 7,21, 0,14,10.00,20.00,SummerDesignDay
8,17.665000449016245
10,82518063.24085298
631,0.0
668,217123412.56991468
2,1, 7,21, 0,14,20.00,30.00,SummerDesignDay
8,17.698812743128934
10,82518063.24085298
631,0.0
668,218921813.55002193
2,1, 7,21, 0,14,30.00,40.00,SummerDesignDay
8,17.732582050940107
10,82518063.24085298
631,0.0
668,220721542.76215867
2,1, 7,21, 0,14,40.00,50.00,SummerDesignDay
8,17.766307345121004
10,82518063.24085298
631,0.0
668,222526340.16952373
2,1, 7,21, 0,14,50.00,60.00,SummerDesignDay
8,17.79999023167558
10,82518063.24085298
631,0.0
668,224337274.3137183
2,1, 7,21, 0,14, 0.00,60.00,SummerDesignDay
357,24.0
397,24.0
437,24.000000000000015
477,23.99999999999999
517,24.000000000000019
2,1, 7,21, 0,15, 0.00,10.00,SummerDesignDay
8,17.79999023167558
10,82518063.24085298
631,0.0
668,225722462.63114826
2,1, 7,21, 0,15,10.00,20.00,SummerDesignDay
8,17.79999023167558
10,82518063.24085298
631,0.0
668,225879545.06255038
2,1, 7,21, 0,15,20.00,30.00,SummerDesignDay
8,17.79999023167558
10,82518063.24085298
631,0.0
668,226017419.1282461
2,1, 7,21, 0,15,30.00,40.00,SummerDesignDay
8,17.79999023167558
10,82518063.24085298
631,0.0
668,226167940.53139443
2,1, 7,21, 0,15,40.00,50.00,SummerDesignDay
8,17.79999023167558
10,82518063.24085298
631,0.0
668,226288867.81297107
2,1, 7,21, 0,15,50.00,60.00,SummerDesignDay
8,17.79999023167558
10,82518063.24085298
631,0.0
668,226384957.8811502
2,1, 7,21, 0,15, 0.00,60.00,SummerDesignDay
357,24.0
397,24.000000000000058
437,24.00000000000001
477,24.000000000000015
517,24.000000000000015
2,1, 7,21, 0,16, 0.00,10.00,SummerDesignDay
8,17.759562446305357
10,82518063.24085298
631,0.0
668,218087634.29674099
2,1, 7,21, 0,16,10.00,20.00,SummerDesignDay
8,17.71907809634183
10,82518063.24085298
631,0.0
668,215543437.99707524
2,1, 7,21, 0,16,20.00,30.00,SummerDesignDay
8,17.67853788661001
10,82518063.24085298
631,0.0
668,213135022.63374008
2,1, 7,21, 0,16,30.00,40.00,SummerDesignDay
8,17.63791796367351
10,82518063.24085298
631,0.0
668,210674341.11695857
2,1, 7,21, 0,16,40.00,50.00,SummerDesignDay
8,17.59724609886134
10,82518063.24085298
631,0.0
668,208144435.016253
2,1, 7,21, 0,16,50.00,60.00,SummerDesignDay
8,17.55650676726033
10,82518063.24085298
631,0.0
668,205424770.0079813
2,1, 7,21, 0,16, 0.00,60.00,SummerDesignDay
357,24.00000000000001
397,24.0
437,23.999999999999998
477,24.000000000000019
517,24.000000000000005
2,1, 7,21, 0,17, 0.00,10.00,SummerDesignDay
8,17.50209486331892
10,82518063.24085298
631,0.0
668,201807361.94271875
2,1, 7,21, 0,17,10.00,20.00,SummerDesignDay
8,17.447570789624618
10,82518063.24085298
631,0.0
668,198193110.5491101
2,1, 7,21, 0,17,20.00,30.00,SummerDesignDay
8,17.392929544208135
10,82518063.24085298
631,0.0
668,194581233.05667798
2,1, 7,21, 0,17,30.00,40.00,SummerDesignDay
8,17.33818013976614
10,82518063.24085298
631,0.0
668,190956750.41608394
2,1, 7,21, 0,17,40.00,50.00,SummerDesignDay
8,17.283317298559309
10,82518063.24085298
631,0.0
668,187014683.40449784
2,1, 7,21, 0,17,50.00,60.00,SummerDesignDay
8,17.22833552437677
10,82518063.24085298
631,0.0
668,183072580.52858646
2,1, 7,21, 0,17, 0.00,60.00,SummerDesignDay
357,24.000000000000005
397,24.0
437,24.000000000000005
477,24.000000000000005
517,23.999999999999998
2,1, 7,21, 0,18, 0.00,10.00,SummerDesignDay
8,17.159453019160176
10,78546846.29143992
631,0.0
668,174267890.30676285
2,1, 7,21, 0,18,10.00,20.00,SummerDesignDay
8,17.090391773337136
10,78546846.29143992
631,0.0
668,168894852.05397738
2,1, 7,21, 0,18,20.00,30.00,SummerDesignDay
8,17.021151077964786
10,78546846.29143992
631,0.0
668,163853786.47800765
2,1, 7,21, 0,18,30.00,40.00,SummerDesignDay
8,16.951729380464653
10,78546846.29143992
631,0.0
668,158798978.8810984
2,1, 7,21, 0,18,40.00,50.00,SummerDesignDay
8,16.882126503829249
10,78546846.29143992
631,0.0
668,153771632.19429053
2,1, 7,21, 0,18,50.00,60.00,SummerDesignDay
8,16.812341807494034
10,78546846.29143992
631,0.0
668,148756102.56586463
2,1, 7,21, 0,18, 0.00,60.00,SummerDesignDay
357,23.99999999999999
397,24.000000000000087
437,24.00000000000001
477,23.999999999999987
517,24.000000000000026
2,1, 7,21, 0,19, 0.00,10.00,SummerDesignDay
8,16.707321072823203
10,61008242.258138108
631,0.0
668,128810390.51341623
2,1, 7,21, 0,19,10.00,20.00,SummerDesignDay
8,16.601881826644556
10,61008242.258138108
631,0.0
668,119954319.23849175
2,1, 7,21, 0,19,20.00,30.00,SummerDesignDay
8,16.496030555252849
10,61008242.258138108
631,0.0
668,111772941.47238592
2,1, 7,21, 0,19,30.00,40.00,SummerDesignDay
8,16.389760181474104
10,61008242.258138108
631,0.0
668,103560691.47462745
2,1, 7,21, 0,19,40.00,50.00,SummerDesignDay
8,16.283067654262039
10,61008242.258138108
631,0.0
668,95460241.00921116
2,1, 7,21, 0,19,50.00,60.00,SummerDesignDay
8,16.17595057957811
10,61008242.258138108
631,0.0
668,87443820.84294822
2,1, 7,21, 0,19, 0.00,60.00,SummerDesignDay
357,24.000000000000005
397,24.0
437,24.0
477,24.000000000000005
517,24.0
2,1, 7,21, 0,20, 0.00,10.00,SummerDesignDay
8,16.097123145563505
10,50253331.766780678
631,0.0
668,76171619.16033924
2,1, 7,21, 0,20,10.00,20.00,SummerDesignDay
8,16.018070242471564
10,50253331.766780678
631,0.0
668,69650652.46031574
2,1, 7,21, 0,20,20.00,30.00,SummerDesignDay
8,15.938779752340516
10,50253331.766780678
631,0.0
668,63615683.969272758
2,1, 7,21, 0,20,30.00,40.00,SummerDesignDay
8,15.85926152575189
10,50253331.766780678
631,0.0
668,57625610.449729848
2,1, 7,21, 0,20,40.00,50.00,SummerDesignDay
8,15.779503718563929
10,50253331.766780678
631,0.0
668,51695173.179912839
2,1, 7,21, 0,20,50.00,60.00,SummerDesignDay
8,15.699515709672767
10,50253331.766780678
631,0.0
668,45824174.71988199
2,1, 7,21, 0,20, 0.00,60.00,SummerDesignDay
357,24.000000000000005
397,24.00000000000001
437,24.00000000000003
477,24.0
517,24.000000000000015
2,1, 7,21, 0,21, 0.00,10.00,SummerDesignDay
8,15.63389147320404
10,50253331.766780678
631,0.0
668,41035346.43516362
2,1, 7,21, 0,21,10.00,20.00,SummerDesignDay
8,15.56810827419793
10,50253331.766780678
631,0.0
668,36266651.61264816
2,1, 7,21, 0,21,20.00,30.00,SummerDesignDay
8,15.502170882753524
10,50253331.766780678
631,0.0
668,31516684.078447716
2,1, 7,21, 0,21,30.00,40.00,SummerDesignDay
8,15.436068032613852
10,50253331.766780678
631,0.0
668,26796701.51036826
2,1, 7,21, 0,21,40.00,50.00,SummerDesignDay
8,15.369804371206009
10,50253331.766780678
631,0.0
668,22456679.688196016
2,1, 7,21, 0,21,50.00,60.00,SummerDesignDay
8,15.303384603594449
10,50253331.766780678
631,0.0
668,18479759.12531131
2,1, 7,21, 0,21, 0.00,60.00,SummerDesignDay
357,24.000000000000005
397,23.989087573372968
437,23.999999999999976
477,24.00000000000003
517,24.000000000000005
2,1, 7,21, 0,22, 0.00,10.00,SummerDesignDay
8,15.236797685071274
10,40904659.5716889
631,0.0
668,9097904.994749319
2,1, 7,21, 0,22,10.00,20.00,SummerDesignDay
8,15.170047891787942
10,40904659.5716889
631,0.0
668,6502643.761709106
2,1, 7,21, 0,22,20.00,30.00,SummerDesignDay
8,15.103134826860483
10,40904659.5716889
631,0.0
668,4447104.709815386
2,1, 7,21, 0,22,30.00,40.00,SummerDesignDay
8,15.036063385178485
10,40904659.5716889
631,0.0
668,3131488.8019653076
2,1, 7,21, 0,22,40.00,50.00,SummerDesignDay
8,14.968821767219835
10,40904659.5716889
631,0.0
668,1819034.9356188256
2,1, 7,21, 0,22,50.00,60.00,SummerDesignDay
8,14.90141525878635
10,40904659.5716889
631,0.0
668,508727.3165761466
2,1, 7,21, 0,22, 0.00,60.00,SummerDesignDay
357,24.147492485686656
397,23.150814528669668
437,24.00000000000003
477,23.911564394344354
517,23.705071339787155
2,1, 7,21, 0,23, 0.00,10.00,SummerDesignDay
8,14.848873673278373
10,40904659.5716889
631,0.0
668,0.0
2,1, 7,21, 0,23,10.00,20.00,SummerDesignDay
8,14.796237168136719
10,40904659.5716889
631,0.0
668,0.0
2,1, 7,21, 0,23,20.00,30.00,SummerDesignDay
8,14.743494321455645
10,40904659.5716889
631,0.0
668,0.0
2,1, 7,21, 0,23,30.00,40.00,SummerDesignDay
8,14.690649975253665
10,40904659.5716889
631,0.0
668,0.0
2,1, 7,21, 0,23,40.00,50.00,SummerDesignDay
8,14.637704281233117
10,40904659.5716889
631,0.0
668,0.0
2,1, 7,21, 0,23,50.00,60.00,SummerDesignDay
8,14.584656914839757
10,40904659.5716889
631,0.0
668,0.0
2,1, 7,21, 0,23, 0.00,60.00,SummerDesignDay
357,24.02596723247214
397,22.230618459597428
437,23.563191923210839
477,23.100668954179345
517,22.74757355487692
2,1, 7,21, 0,24, 0.00,10.00,SummerDesignDay
8,14.531507212058875
10,38919051.09698237
631,0.0
668,0.0
2,1, 7,21, 0,24,10.00,20.00,SummerDesignDay
8,14.47825496413355
10,38919051.09698237
631,652825.6498456615
668,0.0
2,1, 7,21, 0,24,20.00,30.00,SummerDesignDay
8,14.4249000133173
10,38919051.09698237
631,3105142.3555303637
668,0.0
2,1, 7,21, 0,24,30.00,40.00,SummerDesignDay
8,14.371447531304272
10,38919051.09698237
631,3168233.6341700826
668,0.0
2,1, 7,21, 0,24,40.00,50.00,SummerDesignDay
8,14.31788619902223
10,38919051.09698237
631,5656979.636590108
668,0.0
2,1, 7,21, 0,24,50.00,60.00,SummerDesignDay
8,14.264220970176066
10,38919051.09698237
631,7477494.71263214
668,0.0
2,1, 7,21, 0,24, 0.00,60.00,SummerDesignDay
357,23.495750800386234
397,21.21180168524882
437,22.697490384467405
477,22.215092564955467
517,22.043199441858975
3,1, 7,21, 0,SummerDesignDay
358,46.07711897180685,41.63811807148895,21,60,54.896412488501869, 7,10
398,51.41043851581738,43.94920604157631,19,60,63.34366736592024, 6,30
438,49.75164533028602,40.30302976435367,17,40,65.31140580088827, 6,50
478,50.17690363241214,40.35657533522124,16,50,65.31141140275689, 6,20
518,50.40459124802414,40.52201865507455,16,40,65.31142954215327, 6,10
4,1, 7
7,22.2505,16.5,21, 5,60,28.9,21,14,60
1,FORT MCMURRAY AP ANN HTG 99.6% CONDNS DB,  56.65,-111.22,  -7.00, 369.10
2,1, 1,21, 0, 1, 0.00,10.00,WinterDesignDay
8,-36.2
10,38919051.09698237
631,966171964.3516746
668,0.0
2,1, 1,21, 0, 1,10.00,20.00,WinterDesignDay
8,-36.2
10,38919051.09698237
631,966351953.7432649
668,0.0
2,1, 1,21, 0, 1,20.00,30.00,WinterDesignDay
8,-36.2
10,38919051.09698237
631,966404253.1840959
668,0.0
2,1, 1,21, 0, 1,30.00,40.00,WinterDesignDay
8,-36.2
10,38919051.09698237
631,966466659.806036
668,0.0
2,1, 1,21, 0, 1,40.00,50.00,WinterDesignDay
8,-36.2
10,38919051.09698237
631,966523926.254735
668,0.0
2,1, 1,21, 0, 1,50.00,60.00,WinterDesignDay
8,-36.2
10,38919051.09698237
631,966572658.9158988
668,0.0
2,1, 1,21, 0, 1, 0.00,60.00,WinterDesignDay
357,18.000000000000015
397,18.000000000000005
437,22.000000000000015
477,22.00000000000001
517,22.000000000000005
2,1, 1,21, 0, 2, 0.00,10.00,WinterDesignDay
8,-36.2
10,23754177.30598479
631,981426818.9806421
668,0.0
2,1, 1,21, 0, 2,10.00,20.00,WinterDesignDay
8,-36.2
10,23754177.30598479
631,982221244.95296
668,0.0
2,1, 1,21, 0, 2,20.00,30.00,WinterDesignDay
8,-36.2
10,23754177.30598479
631,982596003.3766539
668,0.0
2,1, 1,21, 0, 2,30.00,40.00,WinterDesignDay
8,-36.2
10,23754177.30598479
631,982927439.1504433
668,0.0
2,1, 1,21, 0, 2,40.00,50.00,WinterDesignDay
8,-36.2
10,23754177.30598479
631,983193742.3366243
668,0.0
2,1, 1,21, 0, 2,50.00,60.00,WinterDesignDay
8,-36.2
10,23754177.30598479
631,983397199.0738616
668,0.0
2,1, 1,21, 0, 2, 0.00,60.00,WinterDesignDay
357,18.00000000000001
397,18.0
437,22.00000000000001
477,22.000000000000005
517,22.0
2,1, 1,21, 0, 3, 0.00,10.00,WinterDesignDay
8,-36.2
10,8589303.51498723
631,819936742.5113504
668,0.0
2,1, 1,21, 0, 3,10.00,20.00,WinterDesignDay
8,-36.2
10,8589303.51498723
631,1018460418.3883882
668,0.0
2,1, 1,21, 0, 3,20.00,30.00,WinterDesignDay
8,-36.2
10,8589303.51498723
631,899739436.0269042
668,0.0
2,1, 1,21, 0, 3,30.00,40.00,WinterDesignDay
8,-36.2
10,8589303.51498723
631,924019269.1919925
668,0.0
2,1, 1,21, 0, 3,40.00,50.00,WinterDesignDay
8,-36.2
10,8589303.51498723
631,927541445.1547915
668,0.0
2,1, 1,21, 0, 3,50.00,60.00,WinterDesignDay
8,-36.2
10,8589303.51498723
631,928698635.4131796
668,0.0
2,1, 1,21, 0, 3, 0.00,60.00,WinterDesignDay
357,18.00000000000001
397,18.000000000000005
437,18.03897840425134
477,18.03889043146815
517,18.038808707078649
2,1, 1,21, 0, 4, 0.00,10.00,WinterDesignDay
8,-36.2
10,8589303.51498723
631,929576585.2116411
668,0.0
2,1, 1,21, 0, 4,10.00,20.00,WinterDesignDay
8,-36.2
10,8589303.51498723
631,930243389.8959353
668,0.0
2,1, 1,21, 0, 4,20.00,30.00,WinterDesignDay
8,-36.2
10,8589303.51498723
631,930768893.914618
668,0.0
2,1, 1,21, 0, 4,30.00,40.00,WinterDesignDay
8,-36.2
10,8589303.51498723
631,931168695.5980357
668,0.0
2,1, 1,21, 0, 4,40.00,50.00,WinterDesignDay
8,-36.2
10,8589303.51498723
631,931474670.8640226
668,0.0
2,1, 1,21, 0, 4,50.00,60.00,WinterDesignDay
8,-36.2
10,8589303.51498723
631,931725647.3004673
668,0.0
2,1, 1,21, 0, 4, 0.00,60.00,WinterDesignDay
357,18.00000000000001
397,18.000000000000005
437,18.0
477,18.000000000000005
517,18.000000000000005
2,1, 1,21, 0, 5, 0.00,10.00,WinterDesignDay
8,-36.2
10,8589303.51498723
631,931915284.1449142
668,0.0
2,1, 1,21, 0, 5,10.00,20.00,WinterDesignDay
8,-36.2
10,8589303.51498723
631,932072071.701505
668,0.0
2,1, 1,21, 0, 5,20.00,30.00,WinterDesignDay
8,-36.2
10,8589303.51498723
631,932189066.3187965
668,0.0
2,1, 1,21, 0, 5,30.00,40.00,WinterDesignDay
8,-36.2
10,8589303.51498723
631,932287969.2320623
668,0.0
2,1, 1,21, 0, 5,40.00,50.00,WinterDesignDay
8,-36.2
10,8589303.51498723
631,932358759.9769962
668,0.0
2,1, 1,21, 0, 5,50.00,60.00,WinterDesignDay
8,-36.2
10,8589303.51498723
631,932420083.5114166
668,0.0
2,1, 1,21, 0, 5, 0.00,60.00,WinterDesignDay
357,18.000000000000005
397,18.000000000000005
437,18.000000000000005
477,18.000000000000005
517,18.000000000000005
2,1, 1,21, 0, 6, 0.00,10.00,WinterDesignDay
8,-36.2
10,8589303.51498723
631,932475722.4671809
668,0.0
2,1, 1,21, 0, 6,10.00,20.00,WinterDesignDay
8,-36.2
10,8589303.51498723
631,932523545.1329783
668,0.0
2,1, 1,21, 0, 6,20.00,30.00,WinterDesignDay
8,-36.2
10,8589303.51498723
631,932563874.1668178
668,0.0
2,1, 1,21, 0, 6,30.00,40.00,WinterDesignDay
8,-36.2
10,8589303.51498723
631,932597691.5875459
668,0.0
2,1, 1,21, 0, 6,40.00,50.00,WinterDesignDay
8,-36.2
10,8589303.51498723
631,932626047.5478729
668,0.0
2,1, 1,21, 0, 6,50.00,60.00,WinterDesignDay
8,-36.2
10,8589303.51498723
631,932649882.7979844
668,0.0
2,1, 1,21, 0, 6, 0.00,60.00,WinterDesignDay
357,18.00000000000001
397,18.000000000000005
437,18.000000000000005
477,18.0
517,18.000000000000005
2,1, 1,21, 0, 7, 0.00,10.00,WinterDesignDay
8,-36.2
10,8589303.51498723
631,995685166.3792526
668,0.0
2,1, 1,21, 0, 7,10.00,20.00,WinterDesignDay
8,-36.2
10,8589303.51498723
631,896298496.7935732
668,0.0
2,1, 1,21, 0, 7,20.00,30.00,WinterDesignDay
8,-36.2
10,8589303.51498723
631,961394502.9296017
668,0.0
2,1, 1,21, 0, 7,30.00,40.00,WinterDesignDay
8,-36.2
10,8589303.51498723
631,944740277.3913794
668,0.0
2,1, 1,21, 0, 7,40.00,50.00,WinterDesignDay
8,-36.2
10,8589303.51498723
631,944968463.0897092
668,0.0
2,1, 1,21, 0, 7,50.00,60.00,WinterDesignDay
8,-36.2
10,8589303.51498723
631,944677506.5808778
668,0.0
2,1, 1,21, 0, 7, 0.00,60.00,WinterDesignDay
357,20.029989630990863
397,19.997161489040079
437,18.0
477,18.0
517,18.0
2,1, 1,21, 0, 8, 0.00,10.00,WinterDesignDay
8,-36.2
10,19923584.184785546
631,992822985.823628
668,0.0
2,1, 1,21, 0, 8,10.00,20.00,WinterDesignDay
8,-36.2
10,19923584.184785546
631,898253325.9073972
668,0.0
2,1, 1,21, 0, 8,20.00,30.00,WinterDesignDay
8,-36.2
10,19923584.184785546
631,963162671.7704065
668,0.0
2,1, 1,21, 0, 8,30.00,40.00,WinterDesignDay
8,-36.2
10,19923584.184785546
631,945799558.1123414
668,0.0
2,1, 1,21, 0, 8,40.00,50.00,WinterDesignDay
8,-36.2
10,19923584.184785546
631,945737685.3882272
668,0.0
2,1, 1,21, 0, 8,50.00,60.00,WinterDesignDay
8,-36.2
10,19923584.184785546
631,945156869.8810533
668,0.0
2,1, 1,21, 0, 8, 0.00,60.00,WinterDesignDay
357,22.033116321830606
397,21.997014887653888
437,18.000000000000008
477,18.000000000000005
517,18.000000000000005
2,1, 1,21, 0, 9, 0.00,10.00,WinterDesignDay
8,-36.2
10,46810860.41317912
631,1014038826.0071591
668,0.0
2,1, 1,21, 0, 9,10.00,20.00,WinterDesignDay
8,-36.2
10,46810860.41317912
631,892369821.6127969
668,0.0
2,1, 1,21, 0, 9,20.00,30.00,WinterDesignDay
8,-36.2
10,46810860.41317912
631,963456410.7740342
668,0.0
2,1, 1,21, 0, 9,30.00,40.00,WinterDesignDay
8,-36.2
10,46810860.41317912
631,946304915.31931
668,0.0
2,1, 1,21, 0, 9,40.00,50.00,WinterDesignDay
8,-36.2
10,46810860.41317912
631,945045252.18887
668,0.0
2,1, 1,21, 0, 9,50.00,60.00,WinterDesignDay
8,-36.2
10,46810860.41317912
631,944079083.0905347
668,0.0
2,1, 1,21, 0, 9, 0.00,60.00,WinterDesignDay
357,22.00000000000001
397,22.00000000000003
437,19.996631851066288
477,19.996617882080753
517,19.996621047570576
2,1, 1,21, 0,10, 0.00,10.00,WinterDesignDay
8,-36.2
10,67353189.4498554
631,1014453847.1746783
668,0.0
2,1, 1,21, 0,10,10.00,20.00,WinterDesignDay
8,-36.2
10,67353189.4498554
631,902114276.9757559
668,0.0
2,1, 1,21, 0,10,20.00,30.00,WinterDesignDay
8,-36.2
10,67353189.4498554
631,971947062.9081729
668,0.0
2,1, 1,21, 0,10,30.00,40.00,WinterDesignDay
8,-36.2
10,67353189.4498554
631,955143080.8141514
668,0.0
2,1, 1,21, 0,10,40.00,50.00,WinterDesignDay
8,-36.2
10,67353189.4498554
631,953838188.6888082