Program Version,EnergyPlus, Version 8.9.0-eba93e8e1b, YMD=2019.03.27 19:59
1,5,Environment Title[],Latitude[deg],Longitude[deg],Time Zone[],Elevation[m]
2,8,Day of Simulation[],Month[],Day of Month[],DST Indicator[1=yes 0=no],Hour[],StartMinute[],EndMinute[],DayType
3,5,Cumulative Day of Simulation[],Month[],Day of Month[],DST Indicator[1=yes 0=no],DayType  ! When Daily Report Variables Requested
4,2,Cumulative Days of Simulation[],Month[]  ! When Monthly Report Variables Requested
5,1,Cumulative Days of Simulation[] ! When Run Period Report Variables Requested
6,1,Calendar Year of Simulation[] ! When Annual Report Variables Requested
7,9,Environment,Site Outdoor Air Drybulb Temperature [C] !Monthly [Value,Min,Day,Hour,Minute,Max,Day,Hour,Minute]
8,1,Environment,Site Outdoor Air Wetbulb Temperature [C] !TimeStep
1125,1,ALL_ST=WHOLEBUILDING_FL=STORY 1_SCH=F,Zone Air Temperature [C] !Hourly
1126,7,ALL_ST=WHOLEBUILDING_FL=STORY 1_SCH=F,Zone Air Relative Humidity [%] !Daily [Value,Min,Hour,Minute,Max,Hour,Minute]
1165,1,ALL_ST=WHOLEBUILDING_FL=STORY 1_SCH=H,Zone Air Temperature [C] !Hourly
1166,7,ALL_ST=WHOLEBUILDING_FL=STORY 1_SCH=H,Zone Air Relative Humidity [%] !Daily [Value,Min,Hour,Minute,Max,Hour,Minute]
1205,1,ALL_ST=WHOLEBUILDING_FL=STORY 2_SCH=A,Zone Air Temperature [C] !Hourly
1206,7,ALL_ST=WHOLEBUILDING_FL=STORY 2_SCH=A,Zone Air Relative Humidity [%] !Daily [Value,Min,Hour,Minute,Max,Hour,Minute]
1245,1,ALL_ST=WHOLEBUILDING_FL=STORY 2_SCH=A 1,Zone Air Temperature [C] !Hourly
1246,7,ALL_ST=WHOLEBUILDING_FL=STORY 2_SCH=A 1,Zone Air Relative Humidity [%] !Daily [Value,Min,Hour,Minute,Max,Hour,Minute]
1285,1,ALL_ST=WHOLEBUILDING_FL=STORY 2_SCH=A 2,Zone Air Temperature [C] !Hourly
1286,7,ALL_ST=WHOLEBUILDING_FL=STORY 2_SCH=A 2,Zone Air Relative Humidity [%] !Daily [Value,Min,Hour,Minute,Max,Hour,Minute]
1325,1,ALL_ST=WHOLEBUILDING_FL=STORY 2_SCH=C,Zone Air Temperature [C] !Hourly
1326,7,ALL_ST=WHOLEBUILDING_FL=STORY 2_SCH=C,Zone Air Relative Humidity [%] !Daily [Value,Min,Hour,Minute,Max,Hour,Minute]
1365,1,ALL_ST=WHOLEBUILDING_FL=STORY 3_SCH=B,Zone Air Temperature [C] !Hourly
1366,7,ALL_ST=WHOLEBUILDING_FL=STORY 3_SCH=B,Zone Air Relative Humidity [%] !Daily [Value,Min,Hour,Minute,Max,Hour,Minute]
1405,1,ALL_ST=WHOLEBUILDING_FL=STORY 3_SCH=B 1,Zone Air Temperature [C] !Hourly
1406,7,ALL_ST=WHOLEBUILDING_FL=STORY 3_SCH=B 1,Zone Air Relative Humidity [%] !Daily [Value,Min,Hour,Minute,Max,Hour,Minute]
1445,1,ALL_ST=WHOLEBUILDING_FL=STORY 3_SCH=B 2,Zone Air Temperature [C] !Hourly
1446,7,ALL_ST=WHOLEBUILDING_FL=STORY 3_SCH=B 2,Zone Air Relative Humidity [%] !Daily [Value,Min,Hour,Minute,Max,Hour,Minute]
1485,1,ALL_ST=WHOLEBUILDING_FL=STORY 3_SCH=C,Zone Air Temperature [C] !Hourly
1486,7,ALL_ST=WHOLEBUILDING_FL=STORY 3_SCH=C,Zone Air Relative Humidity [%] !Daily [Value,Min,Hour,Minute,Max,Hour,Minute]
1525,1,ALL_ST=WHOLEBUILDING_FL=STORY 3_SCH=C 1,Zone Air Temperature [C] !Hourly
1526,7,ALL_ST=WHOLEBUILDING_FL=STORY 3_SCH=C 1,Zone Air Relative Humidity [%] !Daily [Value,Min,Hour,Minute,Max,Hour,Minute]
1565,1,ALL_ST=WHOLEBUILDING_FL=STORY 4_SCH=A,Zone Air Temperature [C] !Hourly
1566,7,ALL_ST=WHOLEBUILDING_FL=STORY 4_SCH=A,Zone Air Relative Humidity [%] !Daily [Value,Min,Hour,Minute,Max,Hour,Minute]
1605,1,ALL_ST=WHOLEBUILDING_FL=STORY 4_SCH=B,Zone Air Temperature [C] !Hourly
1606,7,ALL_ST=WHOLEBUILDING_FL=STORY 4_SCH=B,Zone Air Relative Humidity [%] !Daily [Value,Min,Hour,Minute,Max,Hour,Minute]
1645,1,ALL_ST=WHOLEBUILDING_FL=STORY 4_SCH=B 1,Zone Air Temperature [C] !Hourly
1646,7,ALL_ST=WHOLEBUILDING_FL=STORY 4_SCH=B 1,Zone Air Relative Humidity [%] !Daily [Value,Min,Hour,Minute,Max,Hour,Minute]
1685,1,ALL_ST=WHOLEBUILDING_FL=STORY 4_SCH=C,Zone Air Temperature [C] !Hourly
1686,7,ALL_ST=WHOLEBUILDING_FL=STORY 4_SCH=C,Zone Air Relative Humidity [%] !Daily [Value,Min,Hour,Minute,Max,Hour,Minute]
1725,1,ALL_ST=WHOLEBUILDING_FL=STORY 4_SCH=E,Zone Air Temperature [C] !Hourly
1726,7,ALL_ST=WHOLEBUILDING_FL=STORY 4_SCH=E,Zone Air Relative Humidity [%] !Daily [Value,Min,Hour,Minute,Max,Hour,Minute]
1765,1,DU_BT=DORMITORY_ST=WHOLEBUILDING_FL=STORY 1_SCHG,Zone Air Temperature [C] !Hourly
1766,7,DU_BT=DORMITORY_ST=WHOLEBUILDING_FL=STORY 1_SCHG,Zone Air Relative Humidity [%] !Daily [Value,Min,Hour,Minute,Max,Hour,Minute]
1805,1,DU_BT=HOTEL_ST=WHOLEBUILDING_FL=STORY 1_SCHF,Zone Air Temperature [C] !Hourly
1806,7,DU_BT=HOTEL_ST=WHOLEBUILDING_FL=STORY 1_SCHF,Zone Air Relative Humidity [%] !Daily [Value,Min,Hour,Minute,Max,Hour,Minute]
1845,1,DU_BT=MOTEL_ST=WHOLEBUILDING_FL=STORY 2_SCHF,Zone Air Temperature [C] !Hourly
1846,7,DU_BT=MOTEL_ST=WHOLEBUILDING_FL=STORY 2_SCHF,Zone Air Relative Humidity [%] !Daily [Value,Min,Hour,Minute,Max,Hour,Minute]
1885,1,DU_BT=MULTI-UNIT RESIDENTIAL_ST=WHOLEBUILDING_FL=STORY 1_SCHG,Zone Air Temperature [C] !Hourly
1886,7,DU_BT=MULTI-UNIT RESIDENTIAL_ST=WHOLEBUILDING_FL=STORY 1_SCHG,Zone Air Relative Humidity [%] !Daily [Value,Min,Hour,Minute,Max,Hour,Minute]
10,1,Electricity:Facility [J] !TimeStep
891,1,Gas:Facility [J] !TimeStep
End of Data Dictionary
1,FORT MCMURRAY AP ANN CLG .4% CONDNS DB=>MWB,  56.65,-111.22,  -7.00, 369.10
2,1, 7,21, 0, 1, 0.00,10.00,SummerDesignDay
8,14.218136923962174
10,179558577.25286237
891,117433425.24104584
2,1, 7,21, 0, 1,10.00,20.00,SummerDesignDay
8,14.171982153293495
10,176846770.69467248
891,108986247.17773587
2,1, 7,21, 0, 1,20.00,30.00,SummerDesignDay
8,14.125744780286427
10,176092378.93953026
891,107464857.39271644
2,1, 7,21, 0, 1,30.00,40.00,SummerDesignDay
8,14.079436086331978
10,175349608.93295629
891,107373970.81872462
2,1, 7,21, 0, 1,40.00,50.00,SummerDesignDay
8,14.033050387896898
10,174609582.30067493
891,107277603.55713845
2,1, 7,21, 0, 1,50.00,60.00,SummerDesignDay
8,13.986581233564835
10,173876476.36328317
891,107429280.80227658
2,1, 7,21, 0, 1, 0.00,60.00,SummerDesignDay
1125,23.997220293885279
1165,23.99855378654215
1205,23.778230171314559
1245,23.890210172177566
1285,23.863883947394844
1325,24.66000855011612
1365,23.99804469102131
1405,23.99739925805162
1445,23.998437419770693
1485,24.50968343147653
1525,25.256195111531914
1565,24.93631634306075
1605,23.999137249570368
1645,23.828349563262763
1685,23.729079995364726
1725,23.111081837619467
1765,23.99894550430028
1805,23.885385286021035
1845,23.88688934223099
1885,23.900334884358107
2,1, 7,21, 0, 2, 0.00,10.00,SummerDesignDay
8,13.95555882260429
10,125293927.2344563
891,90019455.40329357
2,1, 7,21, 0, 2,10.00,20.00,SummerDesignDay
8,13.924507755336454
10,123332969.2633596
891,105822488.27935173
2,1, 7,21, 0, 2,20.00,30.00,SummerDesignDay
8,13.893416042989206
10,125275040.66658148
891,53387856.281844239
2,1, 7,21, 0, 2,30.00,40.00,SummerDesignDay
8,13.862289589689029
10,122597692.98724528
891,106111863.62981794
2,1, 7,21, 0, 2,40.00,50.00,SummerDesignDay
8,13.831134407608739
10,123185521.853657
891,82010852.63467252
2,1, 7,21, 0, 2,50.00,60.00,SummerDesignDay
8,13.799938415548118
10,122626972.73473913
891,78228580.7423493
2,1, 7,21, 0, 2, 0.00,60.00,SummerDesignDay
1125,23.998229162232648
1165,23.99870013879597
1205,23.672297341982725
1245,23.68668522940105
1285,23.78363545802685
1325,24.442654902836428
1365,24.265023679683656
1405,24.15303680406161
1445,24.498861651605979
1485,24.17383414363223
1525,25.02367339155167
1565,24.56854181131879
1605,23.67485366991958
1645,23.01669490788093
1685,23.36458679328398
1725,22.704112237999227
1765,23.999400466098718
1805,23.89379472960071
1845,23.895364636075184
1885,23.907427297860907
2,1, 7,21, 0, 3, 0.00,10.00,SummerDesignDay
8,13.776521671948676
10,94129485.00597309
891,47497335.24984858
2,1, 7,21, 0, 3,10.00,20.00,SummerDesignDay
8,13.753085235778466
10,92929099.61301166
891,47083815.37061986
2,1, 7,21, 0, 3,20.00,30.00,SummerDesignDay
8,13.729636002354969
10,94859860.26689054
891,2335462.116894433
2,1, 7,21, 0, 3,30.00,40.00,SummerDesignDay
8,13.706147375533054
10,92271808.26694013
891,47191129.699917498
2,1, 7,21, 0, 3,40.00,50.00,SummerDesignDay
8,13.682651961920304
10,92962816.55340369
891,48084414.35583048
2,1, 7,21, 0, 3,50.00,60.00,SummerDesignDay
8,13.659136670643687
10,92520606.23872815
891,47617914.684542957
2,1, 7,21, 0, 3, 0.00,60.00,SummerDesignDay
1125,23.930408340308437
1165,23.99873137630441
1205,23.56085469059508
1245,23.516009783919505
1285,23.698012099526783
1325,24.26018872877383
1365,23.809671344825344
1405,23.66055961022391
1445,24.269450856651294
1485,23.87845749265517
1525,24.803706114566628
1565,24.208926766882287
1605,22.705653692956834
1645,21.808325012215439
1685,23.017184541036785
1725,22.33791452194075
1765,23.999495624321836
1805,23.89378326363972
1845,23.8954686700103
1885,23.90713276003345
2,1, 7,21, 0, 4, 0.00,10.00,SummerDesignDay
8,13.63560137410855
10,87709031.86062899
891,2227461.212315899
2,1, 7,21, 0, 4,10.00,20.00,SummerDesignDay
8,13.612040802606578
10,87227666.57434194
891,46767789.61898526
2,1, 7,21, 0, 4,20.00,30.00,SummerDesignDay
8,13.58846620506876
10,87052001.6754525
891,2486699.508861089
2,1, 7,21, 0, 4,30.00,40.00,SummerDesignDay
8,13.56487178447336
10,86881445.31580793
891,46957739.51773021
2,1, 7,21, 0, 4,40.00,50.00,SummerDesignDay
8,13.541257354069103
10,86714965.73218823
891,2745937.6377017
2,1, 7,21, 0, 4,50.00,60.00,SummerDesignDay
8,13.517617463812285
10,86543665.21839912
891,47130365.693098928
2,1, 7,21, 0, 4, 0.00,60.00,SummerDesignDay
1125,23.68254108613058
1165,23.964294365307823
1205,23.442268802735808
1245,23.3509963968706
1285,23.601278608488316
1325,24.091431948107858
1365,23.343828435880029
1405,23.206140145211266
1445,23.880276481918867
1485,23.592563311616364
1525,24.57506938883483
1565,23.83883919697406
1605,21.90319253788275
1645,21.0501516738093
1685,22.668367802873666
1725,21.979939728782978
1765,23.999503903722425
1805,23.885165519532494
1845,23.887212843061538
1885,23.899332573600618
2,1, 7,21, 0, 5, 0.00,10.00,SummerDesignDay
8,13.50185415824011
10,86414962.9544379
891,47502711.44785957
2,1, 7,21, 0, 5,10.00,20.00,SummerDesignDay
8,13.486076034032447
10,86378381.56858804
891,3052726.905530195
2,1, 7,21, 0, 5,20.00,30.00,SummerDesignDay
8,13.470289340350983
10,86340660.92854561
891,47600847.38495652
2,1, 7,21, 0, 5,30.00,40.00,SummerDesignDay
8,13.454493322631063
10,86296740.99111818
891,3225552.0371901269
2,1, 7,21, 0, 5,40.00,50.00,SummerDesignDay
8,13.438688835118548
10,86242376.53460577
891,47708934.13529249
2,1, 7,21, 0, 5,50.00,60.00,SummerDesignDay
8,13.422888173889437
10,86163583.58539427
891,3398377.1323156778
2,1, 7,21, 0, 5, 0.00,60.00,SummerDesignDay
1125,23.513963251116679
1165,23.82224733729981
1205,23.33647691572831
1245,23.20123571879793
1285,23.509918511476895
1325,24.030121517104737
1365,23.08535382636063
1405,22.949866416732517
1445,23.76631767374292
1485,23.336607284981687
1525,24.466130975555318
1565,23.562052643435778
1605,21.661617405588506
1645,20.805027285348016
1685,22.59991113831559
1725,21.715817552544153
1765,23.99954420062255
1805,23.885022533272396
1845,23.887351747320026
1885,23.89909257396272
2,1, 7,21, 0, 6, 0.00,10.00,SummerDesignDay
8,13.438688835118548
10,86386472.06658505
891,48608342.49899164
2,1, 7,21, 0, 6,10.00,20.00,SummerDesignDay
8,13.454493322631063
10,86676633.17088646
891,48693975.91329116
2,1, 7,21, 0, 6,20.00,30.00,SummerDesignDay
8,13.470289340350983
10,86683510.55001544
891,48712731.49766195
2,1, 7,21, 0, 6,30.00,40.00,SummerDesignDay
8,13.486076034032447
10,86693530.3256114
891,3070030.218538992
2,1, 7,21, 0, 6,40.00,50.00,SummerDesignDay
8,13.50185415824011
10,86703549.25526126
891,48357917.52905141
2,1, 7,21, 0, 6,50.00,60.00,SummerDesignDay
8,13.517617463812285
10,86703111.42073292
891,48367803.68485767
2,1, 7,21, 0, 6, 0.00,60.00,SummerDesignDay
1125,23.495508399498843
1165,23.787548982505908
1205,23.25451660480873
1245,23.120418256093843
1285,23.442926676252609
1325,24.36368177939758
1365,22.934696715863266
1405,22.78449886711064
1445,23.747952808155543
1485,23.176690767814667
1525,24.796276552760614
1565,23.57062478815189
1605,21.914004540298178
1645,20.85046154787095
1685,23.460551651987289
1725,21.750050821815294
1765,23.999567544342044
1805,23.88474463607096
1845,23.887849813757908
1885,23.898852917156178
2,1, 7,21, 0, 7, 0.00,10.00,SummerDesignDay
8,13.572736920571789
10,95261863.81584133
891,50842216.74037748
2,1, 7,21, 0, 7,10.00,20.00,SummerDesignDay
8,13.627748229152554
10,96379429.53985016
891,50890960.9037883
2,1, 7,21, 0, 7,20.00,30.00,SummerDesignDay
8,13.682651961920304
10,96602678.84767345
891,50638309.491528209
2,1, 7,21, 0, 7,30.00,40.00,SummerDesignDay
8,13.737448093244995
10,97159097.5146921
891,74252673.2034265
2,1, 7,21, 0, 7,40.00,50.00,SummerDesignDay
8,13.792137011831216
10,98137150.03103617
891,74654152.33712195
2,1, 7,21, 0, 7,50.00,60.00,SummerDesignDay
8,13.846719282840333
10,98889056.62855388
891,49613945.96097926
2,1, 7,21, 0, 7, 0.00,60.00,SummerDesignDay
1125,23.750533095283286
1165,23.952400708774588
1205,23.186281845061044
1245,23.178439623050094
1285,23.394291104128486
1325,24.87284570224479
1365,22.959225351318865
1405,22.78888700809313
1445,23.604271877898897
1485,23.191489215124933
1525,25.322328428619647
1565,23.873974249705559
1605,22.25122642433445
1645,21.146298714928649
1685,24.78480407787607
1725,22.16162923868646
1765,23.999366494740558
1805,23.884351289012416
1845,23.887225307407126
1885,23.89878155020237
2,1, 7,21, 0, 8, 0.00,10.00,SummerDesignDay
8,13.978831900527043
10,156206294.14672715
891,112524003.9309225
2,1, 7,21, 0, 8,10.00,20.00,SummerDesignDay
8,14.110321014287419
10,155407795.26330183
891,83215217.56685239
2,1, 7,21, 0, 8,20.00,30.00,SummerDesignDay
8,14.241191509616986
10,157083693.9441777
891,84596959.46132864
2,1, 7,21, 0, 8,30.00,40.00,SummerDesignDay
8,14.371447531304272
10,157949824.9483128
891,111543498.00757197
2,1, 7,21, 0, 8,40.00,50.00,SummerDesignDay
8,14.501093766564925
10,157552375.18988804
891,111565076.72554469
2,1, 7,21, 0, 8,50.00,60.00,SummerDesignDay
8,14.630134792273804
10,159910844.31025044
891,111598110.93870095
2,1, 7,21, 0, 8, 0.00,60.00,SummerDesignDay
1125,23.991432461959876
1165,23.998542815127256
1205,23.381526917948095
1245,23.707870426929874
1285,23.612691926470828
1325,23.947947023426307
1365,23.251699639178964
1405,23.05473223362291
1445,23.536759239758138
1485,23.48436516584601
1525,24.073284305037079
1565,23.999905349130004
1605,23.12356299087619
1645,21.7715115038867
1685,24.026506867578946
1725,23.092530291892378
1765,23.998456614098477
1805,23.907575992172356
1845,23.909499937575985
1885,23.919313818324356
2,1, 7,21, 0, 9, 0.00,10.00,SummerDesignDay
8,14.773641492809972
10,253421437.06314687
891,123973700.48160947
2,1, 7,21, 0, 9,10.00,20.00,SummerDesignDay
8,14.91640948124148
10,266509135.05812574
891,125553743.98501215
2,1, 7,21, 0, 9,20.00,30.00,SummerDesignDay
8,15.05843890714102
10,267853139.97493888
891,129686049.19048687
2,1, 7,21, 0, 9,30.00,40.00,SummerDesignDay
8,15.199735893563798
10,271883435.9698376
891,157571361.95412246
2,1, 7,21, 0, 9,40.00,50.00,SummerDesignDay
8,15.340306256439395
10,276596789.4137468
891,152225358.15313918
2,1, 7,21, 0, 9,50.00,60.00,SummerDesignDay
8,15.48015101768072
10,280360093.9859985
891,125412347.552063
2,1, 7,21, 0, 9, 0.00,60.00,SummerDesignDay
1125,23.997595838557176
1165,23.998341762986514
1205,23.963263647246987
1245,23.99920308543989
1285,23.991311475016336
1325,23.952617243089013
1365,23.825918448905886
1405,23.638893511787456
1445,23.539014913981366
1485,23.909332588759758
1525,23.999534404892576
1565,23.99930156632747
1605,23.98040911827309
1645,22.779970047109229
1685,23.99936385652441
1725,23.986475697899583
1765,23.998127880966579
1805,23.892848220657226
1845,23.894673595423386
1885,23.906757459426286
2,1, 7,21, 0,10, 0.00,10.00,SummerDesignDay
8,15.60467292907716
10,339527330.7090602
891,144238437.91778267
2,1, 7,21, 0,10,10.00,20.00,SummerDesignDay
8,15.72862731650033
10,346285901.8633594
891,207156247.71867375
2,1, 7,21, 0,10,20.00,30.00,SummerDesignDay
8,15.852017409284228
10,354632966.5906892
891,159358145.61349053
2,1, 7,21, 0,10,30.00,40.00,SummerDesignDay
8,15.974848118364367
10,355521017.5446145
891,168758404.11860997
2,1, 7,21, 0,10,40.00,50.00,SummerDesignDay
8,16.097123145563505
10,361022496.5376042
891,197812507.98395718
2,1, 7,21, 0,10,50.00,60.00,SummerDesignDay
8,16.218846351168599
10,365093621.6130695
891,146553550.69756035
2,1, 7,21, 0,10, 0.00,60.00,SummerDesignDay
1125,23.997973683252867
1165,23.998665694519393
1205,23.999388028830596
1245,23.99918680638972
1285,23.99949449237901
1325,24.016118569172535
1365,23.999581805854736
1405,23.999470711308918
1445,23.93725003712861
1485,24.01590196616991
1525,23.999505101868697
1565,23.998936032914647
1605,23.999284845518266
1645,23.924448670200535
1685,23.99924449001242
1725,23.99938642111462
1765,23.99900842687394
1805,23.901576436947534
1845,23.90337335733054
1885,23.914030297265357
2,1, 7,21, 0,11, 0.00,10.00,SummerDesignDay
8,16.325793027093189
10,391348316.25791779
891,186107497.72418315
2,1, 7,21, 0,11,10.00,20.00,SummerDesignDay
8,16.432322158488288
10,395064627.20469537
891,167678802.00151364
2,1, 7,21, 0,11,20.00,30.00,SummerDesignDay
8,16.538424180249178
10,399013213.86762
891,141243795.61851413
2,1, 7,21, 0,11,30.00,40.00,SummerDesignDay
8,16.644108396469087
10,402906891.5626884
891,195774491.01408617
2,1, 7,21, 0,11,40.00,50.00,SummerDesignDay
8,16.749376736593655
10,406761480.5189993
891,157309301.65873025
2,1, 7,21, 0,11,50.00,60.00,SummerDesignDay
8,16.854232613237156
10,410644191.0703933
891,145335433.39402933
2,1, 7,21, 0,11, 0.00,60.00,SummerDesignDay
1125,23.998058345867507
1165,23.998554386144947
1205,23.999037617286523
1245,23.999067014255485
1285,23.99918236155595
1325,24.07678962792168
1365,23.998823511326625
1405,23.998914280453297
1445,23.999220429954847
1485,24.106552127014458
1525,23.999161407466035
1565,23.998468375542264
1605,23.998421973387396
1645,23.99915455774472
1685,23.99883894493882
1725,23.99882103531066
1765,23.99891417528905
1805,23.88469668065323
1845,23.887077039584683
1885,23.89867266741328
2,1, 7,21, 0,12, 0.00,10.00,SummerDesignDay
8,16.92390823520069
10,430003864.985369
891,155866626.4429995
2,1, 7,21, 0,12,10.00,20.00,SummerDesignDay
8,16.99340178950456
10,431754215.8769423
891,149185129.79759745
2,1, 7,21, 0,12,20.00,30.00,SummerDesignDay
8,17.06272006743463
10,434819066.5310061
891,125634191.12079248
2,1, 7,21, 0,12,30.00,40.00,SummerDesignDay
8,17.131853229172639
10,437747938.2113942
891,123451336.49779226
2,1, 7,21, 0,12,40.00,50.00,SummerDesignDay
8,17.200807172194087
10,440585263.40477487
891,123505823.10424787
2,1, 7,21, 0,12,50.00,60.00,SummerDesignDay
8,17.269582116758607
10,443345621.3160312
891,123560322.98058768
2,1, 7,21, 0,12, 0.00,60.00,SummerDesignDay
1125,23.998522362975007
1165,23.998647385983224
1205,23.99883724489585
1245,23.998964119017189
1285,23.999017747119255
1325,24.12552715573202
1365,23.99818962277907
1405,23.998342042524983
1445,23.998735594815256
1485,24.179078487024218
1525,23.99888991284848
1565,23.998229018765799
1605,23.99791510159258
1645,23.998632792133308
1685,23.998579930009475
1725,23.998594361741977
1765,23.999144529255849
1805,23.884932840518375
1845,23.88738224011826
1885,23.898793223098499
2,1, 7,21, 0,13, 0.00,10.00,SummerDesignDay
8,17.32447360221357
10,446780047.58369436
891,142846817.93556939
2,1, 7,21, 0,13,10.00,20.00,SummerDesignDay
8,17.379251291230806
10,449399895.5670049
891,169540455.83191786
2,1, 7,21, 0,13,20.00,30.00,SummerDesignDay
8,17.433921312061729
10,451914862.5501754
891,138088674.2413151
2,1, 7,21, 0,13,30.00,40.00,SummerDesignDay
8,17.488473222557489
10,454375442.20225539
891,128817796.76980852
2,1, 7,21, 0,13,40.00,50.00,SummerDesignDay
8,17.542913447755134
10,456699031.52561488
891,128945815.92806353
2,1, 7,21, 0,13,50.00,60.00,SummerDesignDay
8,17.59724609886134
10,458875337.29795709
891,164659590.13223396
2,1, 7,21, 0,13, 0.00,60.00,SummerDesignDay
1125,23.99884202563887
1165,23.998559063844778
1205,23.99889875959693
1245,23.999073652441127
1285,23.999087318968809
1325,24.161059105562985
1365,23.9974895964455
1405,23.997739267859214
1445,23.998251175021186
1485,24.23104968647819
1525,23.998314829583007
1565,23.998431346043494
1605,23.99743284197145
1645,23.998366724405618
1685,23.998015197719665
1725,23.99845877931844
1765,23.999311769522504
1805,23.88509625174184
1845,23.887556605028619
1885,23.898903525924255
2,1, 7,21, 0,14, 0.00,10.00,SummerDesignDay
8,17.6311450462694
10,458561533.05152407
891,168888823.0509701
2,1, 7,21, 0,14,10.00,20.00,SummerDesignDay
8,17.665000449016245
10,461053473.18372598
891,139199905.0886363
2,1, 7,21, 0,14,20.00,30.00,SummerDesignDay
8,17.698812743128934
10,462422060.88889047
891,178808058.33349837
2,1, 7,21, 0,14,30.00,40.00,SummerDesignDay
8,17.732582050940107
10,463859460.1229015
891,169314609.2768939
2,1, 7,21, 0,14,40.00,50.00,SummerDesignDay
8,17.766307345121004
10,465330485.66182568
891,139209854.09737904
2,1, 7,21, 0,14,50.00,60.00,SummerDesignDay
8,17.79999023167558
10,466729800.06778088
891,181205524.41660399
2,1, 7,21, 0,14, 0.00,60.00,SummerDesignDay
1125,23.99887808695611
1165,23.998438996986726
1205,23.99897445276865
1245,23.999126908187504
1285,23.99921265373386
1325,24.186421202956269
1365,23.99692118088542
1405,23.997153924497597
1445,23.998160955883966
1485,24.267382190043106
1525,23.997768292549194
1565,23.99855000053974
1605,23.997029910034219
1645,23.998274224685848
1685,23.997576866603209
1725,23.998514258171949
1765,23.999396876535969
1805,23.885241384033607
1845,23.88761616872719
1885,23.89898862004426
2,1, 7,21, 0,15, 0.00,10.00,SummerDesignDay
8,17.79999023167558
10,463171306.4438119
891,163785761.37991808
2,1, 7,21, 0,15,10.00,20.00,SummerDesignDay
8,17.79999023167558
10,463271186.91061356
891,136310066.1989186
2,1, 7,21, 0,15,20.00,30.00,SummerDesignDay
8,17.79999023167558
10,463415626.19787129
891,166800285.15252394
2,1, 7,21, 0,15,30.00,40.00,SummerDesignDay
8,17.79999023167558
10,463512654.37125989
891,174140976.88766665
2,1, 7,21, 0,15,40.00,50.00,SummerDesignDay
8,17.79999023167558
10,463566934.9371118
891,136270914.97625987
2,1, 7,21, 0,15,50.00,60.00,SummerDesignDay
8,17.79999023167558
10,463472736.3659846
891,155698888.5645747
2,1, 7,21, 0,15, 0.00,60.00,SummerDesignDay
1125,23.998916324402207
1165,23.998419836456376
1205,23.998786619799234
1245,23.99892202117807
1285,23.99914027623557
1325,24.195358045371476
1365,23.997166763856499
1405,23.997293549179927
1445,23.99830511964839
1485,24.27775195891952
1525,23.997516554145635
1565,23.998122624871269
1605,23.997229364269413
1645,23.998565705581883
1685,23.997528197618835
1725,23.998530157304644
1765,23.999378365772114
1805,23.88545172861416
1845,23.887683115214079
1885,23.89903952739026
2,1, 7,21, 0,16, 0.00,10.00,SummerDesignDay
8,17.759562446305357
10,457815999.0966804
891,164359849.18296317
2,1, 7,21, 0,16,10.00,20.00,SummerDesignDay
8,17.71907809634183
10,455285484.654442
891,135017778.60519976
2,1, 7,21, 0,16,20.00,30.00,SummerDesignDay
8,17.67853788661001
10,453550813.9442417
891,126378280.01461615
2,1, 7,21, 0,16,30.00,40.00,SummerDesignDay
8,17.63791796367351
10,451660326.28556886
891,126471007.04576703
2,1, 7,21, 0,16,40.00,50.00,SummerDesignDay
8,17.59724609886134
10,449678874.06551179
891,134098073.8576875
2,1, 7,21, 0,16,50.00,60.00,SummerDesignDay
8,17.55650676726033
10,447638198.5516228
891,161063159.17261423
2,1, 7,21, 0,16, 0.00,60.00,SummerDesignDay
1125,23.99907989745823
1165,23.99841866452334
1205,23.99865882951576
1245,23.99867565198421
1285,23.999053908249228
1325,24.182482121079816
1365,23.997972984770244
1405,23.997998007133089
1445,23.998773170733427
1485,24.255359112425596
1525,23.997379525578454
1565,23.99774950768166
1605,23.998107371685916
1645,23.999060749280294
1685,23.99761412721374
1725,23.998651720355203
1765,23.999167056932526
1805,23.885745065315036
1845,23.887870355343684
1885,23.899008497057353
2,1, 7,21, 0,17, 0.00,10.00,SummerDesignDay
8,17.50209486331892
10,447347233.31900146
891,127862076.06673172
2,1, 7,21, 0,17,10.00,20.00,SummerDesignDay
8,17.447570789624618
10,444135317.3552195
891,123623104.656899
2,1, 7,21, 0,17,20.00,30.00,SummerDesignDay
8,17.392929544208135
10,441718862.4594431
891,123632985.23321577
2,1, 7,21, 0,17,30.00,40.00,SummerDesignDay
8,17.33818013976614
10,439331834.5007403
891,118583329.90682477
2,1, 7,21, 0,17,40.00,50.00,SummerDesignDay
8,17.283317298559309
10,436933867.9867009
891,118261187.77193052
2,1, 7,21, 0,17,50.00,60.00,SummerDesignDay
8,17.22833552437677
10,434503606.08111336
891,118266182.08682981
2,1, 7,21, 0,17, 0.00,60.00,SummerDesignDay
1125,23.99916289299189
1165,23.998429169291684
1205,23.9987521170307
1245,23.99859832433837
1285,23.999074806408655
1325,24.15463341198246
1365,23.9985859600591
1405,23.998478292135159
1445,23.999099970668899
1485,24.21273069618465
1525,23.997173703517225
1565,23.997801815099579
1605,23.998792878388554
1645,23.999387501476183
1685,23.997712539495966
1725,23.998768429306453
1765,23.998873739886859
1805,23.88590882993741
1845,23.887963300992657
1885,23.89897986942189
2,1, 7,21, 0,18, 0.00,10.00,SummerDesignDay
8,17.159453019160176
10,422102263.9088831
891,116608046.81567443
2,1, 7,21, 0,18,10.00,20.00,SummerDesignDay
8,17.090391773337136
10,419003116.1153072
891,116429306.60427375
2,1, 7,21, 0,18,20.00,30.00,SummerDesignDay
8,17.021151077964786
10,415959374.1341682
891,116428288.67572923
2,1, 7,21, 0,18,30.00,40.00,SummerDesignDay
8,16.951729380464653
10,412960390.64932456
891,116426610.25668292
2,1, 7,21, 0,18,40.00,50.00,SummerDesignDay
8,16.882126503829249
10,410027435.04436126
891,114831069.8992326
2,1, 7,21, 0,18,50.00,60.00,SummerDesignDay
8,16.812341807494034
10,407127683.199106
891,112655717.54046618
2,1, 7,21, 0,18, 0.00,60.00,SummerDesignDay
1125,23.999063225148807
1165,23.9983175943552
1205,23.999032134678275
1245,23.99868294089742
1285,23.99924266304475
1325,24.118609639525489
1365,23.998711979886797
1405,23.99857272901946
1445,23.999187530822174
1485,24.16037631655818
1525,23.997396594714798
1565,23.998302308472366
1605,23.999040413051217
1645,23.999359259089734
1685,23.99817140005305
1725,23.999047248670494
1765,23.99851556356459
1805,23.88589372721154
1845,23.88786819966458
1885,23.898833111401598
2,1, 7,21, 0,19, 0.00,10.00,SummerDesignDay
8,16.707321072823203
10,367049047.249678
891,112939697.6135132
2,1, 7,21, 0,19,10.00,20.00,SummerDesignDay
8,16.601881826644556
10,362860929.2865427
891,112946889.9085585
2,1, 7,21, 0,19,20.00,30.00,SummerDesignDay
8,16.496030555252849
10,359081108.16955289
891,112920039.68856426
2,1, 7,21, 0,19,30.00,40.00,SummerDesignDay
8,16.389760181474104
10,355387446.4918239
891,112892874.68516095
2,1, 7,21, 0,19,40.00,50.00,SummerDesignDay
8,16.283067654262039
10,351806143.04466488
891,112865245.03015772
2,1, 7,21, 0,19,50.00,60.00,SummerDesignDay
8,16.17595057957811
10,348310370.9262805
891,112837133.34262145
2,1, 7,21, 0,19, 0.00,60.00,SummerDesignDay
1125,23.99901091856714
1165,23.99824190083542
1205,23.999393580247515
1245,23.99930126222966
1285,23.99951618091325
1325,24.068783961626868
1365,23.998259096413038
1405,23.99801387590291
1445,23.99891913755646
1485,24.08846046996003
1525,23.997977577639575
1565,23.99912981225674
1605,23.99885472013688
1645,23.999151680210475
1685,23.99879835615567
1725,23.999686818503517
1765,23.997471184253926
1805,23.88584739841521
1845,23.88785516619211
1885,23.89863976512811
2,1, 7,21, 0,20, 0.00,10.00,SummerDesignDay
8,16.097123145563505
10,332439691.12629649
891,131787241.00456809
2,1, 7,21, 0,20,10.00,20.00,SummerDesignDay
8,16.018070242471564
10,330850614.51838257
891,134132806.46286732
2,1, 7,21, 0,20,20.00,30.00,SummerDesignDay
8,15.938779752340516
10,328534361.6502774
891,122338081.39438899
2,1, 7,21, 0,20,30.00,40.00,SummerDesignDay
8,15.85926152575189
10,327526062.3454042
891,120137006.14248272
2,1, 7,21, 0,20,40.00,50.00,SummerDesignDay
8,15.779503718563929
10,323250060.365016
891,120155466.09024538
2,1, 7,21, 0,20,50.00,60.00,SummerDesignDay
8,15.699515709672767
10,321536073.64821246
891,120174191.14117585
2,1, 7,21, 0,20, 0.00,60.00,SummerDesignDay
1125,23.998623997410534
1165,23.998673076983807
1205,23.999752237660336
1245,23.999783798390266
1285,23.999778759715153
1325,24.011652809788158
1365,23.997910103893884
1405,23.997517854726323
1445,23.998719245658994
1485,24.00918089953414
1525,23.999071311081953
1565,23.99975543755559
1605,23.998667716796616
1645,23.998957258809268
1685,23.999593219653069
1725,25.26786512904653
1765,23.99730165139327
1805,23.911363416683359
1845,23.912646081668045
1885,23.92214671473197
2,1, 7,21, 0,21, 0.00,10.00,SummerDesignDay
8,15.63389147320404
10,319752300.36050197
891,140764170.3675619
2,1, 7,21, 0,21,10.00,20.00,SummerDesignDay
8,15.56810827419793
10,319095844.5879451
891,204328924.53197188
2,1, 7,21, 0,21,20.00,30.00,SummerDesignDay
8,15.502170882753524
10,316367696.4288539
891,154243632.7339901
2,1, 7,21, 0,21,30.00,40.00,SummerDesignDay
8,15.436068032613852
10,313707234.80742236
891,159430031.2448579
2,1, 7,21, 0,21,40.00,50.00,SummerDesignDay
8,15.369804371206009
10,311140140.79403796
891,199234725.58514373
2,1, 7,21, 0,21,50.00,60.00,SummerDesignDay
8,15.303384603594449
10,308499751.2713022
891,143340698.4062272
2,1, 7,21, 0,21, 0.00,60.00,SummerDesignDay
1125,23.9971095441782
1165,23.998369619749139
1205,23.999782960227379
1245,23.999818214135599
1285,23.99978183265667
1325,23.97946329441717
1365,23.996791865207084
1405,23.996080613725956
1445,23.99812821698634
1485,23.960188491461567
1525,23.999113426505706
1565,23.999857472177966
1605,23.998140135748615
1645,23.998313195652668
1685,23.99965576667753
1725,25.349137665744494
1765,23.996663004122099
1805,23.885858438100184
1845,23.88746789013793
1885,23.900074207904255
2,1, 7,21, 0,22, 0.00,10.00,SummerDesignDay
8,15.236797685071274
10,242977728.88460628
891,161888960.05499704
2,1, 7,21, 0,22,10.00,20.00,SummerDesignDay
8,15.170047891787942
10,242136015.7301492
891,180406442.44402278
2,1, 7,21, 0,22,20.00,30.00,SummerDesignDay
8,15.103134826860483
10,240904151.8388191
891,136237751.78411896