Program Version,EnergyPlus, Version 8.9.0-eba93e8e1b, YMD=2019.04.04 17:58
1,5,Environment Title[],Latitude[deg],Longitude[deg],Time Zone[],Elevation[m]
2,8,Day of Simulation[],Month[],Day of Month[],DST Indicator[1=yes 0=no],Hour[],StartMinute[],EndMinute[],DayType
3,5,Cumulative Day of Simulation[],Month[],Day of Month[],DST Indicator[1=yes 0=no],DayType  ! When Daily Report Variables Requested
4,2,Cumulative Days of Simulation[],Month[]  ! When Monthly Report Variables Requested
5,1,Cumulative Days of Simulation[] ! When Run Period Report Variables Requested
6,1,Calendar Year of Simulation[] ! When Annual Report Variables Requested
7,9,Environment,Site Outdoor Air Drybulb Temperature [C] !Monthly [Value,Min,Day,Hour,Minute,Max,Day,Hour,Minute]
8,1,Environment,Site Outdoor Air Wetbulb Temperature [C] !TimeStep
555,1,ALL_ST=WAREHOUSE - MED/BLK2 - REFRIGERATED_FL=STORY 1_SCH=A,Zone Air Temperature [C] !Hourly
556,7,ALL_ST=WAREHOUSE - MED/BLK2 - REFRIGERATED_FL=STORY 1_SCH=A,Zone Air Relative Humidity [%] !Daily [Value,Min,Hour,Minute,Max,Hour,Minute]
595,1,ALL_ST=WHOLEBUILDING_FL=STORY 1_SCH=B,Zone Air Temperature [C] !Hourly
596,7,ALL_ST=WHOLEBUILDING_FL=STORY 1_SCH=B,Zone Air Relative Humidity [%] !Daily [Value,Min,Hour,Minute,Max,Hour,Minute]
635,1,ALL_ST=WHOLEBUILDING_FL=STORY 1_SCH=D,Zone Air Temperature [C] !Hourly
636,7,ALL_ST=WHOLEBUILDING_FL=STORY 1_SCH=D,Zone Air Relative Humidity [%] !Daily [Value,Min,Hour,Minute,Max,Hour,Minute]
675,1,ALL_ST=WHOLEBUILDING_FL=STORY 1_SCH=H,Zone Air Temperature [C] !Hourly
676,7,ALL_ST=WHOLEBUILDING_FL=STORY 1_SCH=H,Zone Air Relative Humidity [%] !Daily [Value,Min,Hour,Minute,Max,Hour,Minute]
715,1,ALL_ST=WORKSHOP SPACE_FL=STORY 1_SCH=A,Zone Air Temperature [C] !Hourly
716,7,ALL_ST=WORKSHOP SPACE_FL=STORY 1_SCH=A,Zone Air Relative Humidity [%] !Daily [Value,Min,Hour,Minute,Max,Hour,Minute]
10,1,Electricity:Facility [J] !TimeStep
321,1,Gas:Facility [J] !TimeStep
End of Data Dictionary
1,FORT MCMURRAY AP ANN CLG .4% CONDNS DB=>MWB,  56.65,-111.22,  -7.00, 369.10
2,1, 7,21, 0, 1, 0.00,10.00,SummerDesignDay
8,14.218136923962174
10,31552897.726028284
321,13657369.474907158
2,1, 7,21, 0, 1,10.00,20.00,SummerDesignDay
8,14.171982153293495
10,31241632.546894693
321,12936720.79477207
2,1, 7,21, 0, 1,20.00,30.00,SummerDesignDay
8,14.125744780286427
10,31136133.56619789
321,12903493.995071639
2,1, 7,21, 0, 1,30.00,40.00,SummerDesignDay
8,14.079436086331978
10,31030644.74300687
321,12867528.378510008
2,1, 7,21, 0, 1,40.00,50.00,SummerDesignDay
8,14.033050387896898
10,30926970.84664037
321,15513542.658978703
2,1, 7,21, 0, 1,50.00,60.00,SummerDesignDay
8,13.986581233564835
10,30825048.29657319
321,16895527.16814544
2,1, 7,21, 0, 1, 0.00,60.00,SummerDesignDay
555,22.211133326356106
595,23.99794979808814
635,22.87282072321696
675,23.9974543134542
715,21.042426368169836
2,1, 7,21, 0, 2, 0.00,10.00,SummerDesignDay
8,13.95555882260429
10,25103071.691598707
321,16042446.115172619
2,1, 7,21, 0, 2,10.00,20.00,SummerDesignDay
8,13.924507755336454
10,25071766.987334875
321,15962382.061003766
2,1, 7,21, 0, 2,20.00,30.00,SummerDesignDay
8,13.893416042989206
10,25040379.895418798
321,15973954.259028936
2,1, 7,21, 0, 2,30.00,40.00,SummerDesignDay
8,13.862289589689029
10,25009573.359993705
321,14761895.946379744
2,1, 7,21, 0, 2,40.00,50.00,SummerDesignDay
8,13.831134407608739
10,24979199.1658385
321,10322178.154394549
2,1, 7,21, 0, 2,50.00,60.00,SummerDesignDay
8,13.799938415548118
10,24949962.75367455
321,10239360.693132859
2,1, 7,21, 0, 2, 0.00,60.00,SummerDesignDay
555,21.762251284365737
595,23.709356835367769
635,22.420280595615919
675,23.99752912548271
715,20.533570867651688
2,1, 7,21, 0, 3, 0.00,10.00,SummerDesignDay
8,13.776521671948676
10,20695946.31033956
321,10213927.508858076
2,1, 7,21, 0, 3,10.00,20.00,SummerDesignDay
8,13.753085235778466
10,20670107.632752226
321,12773471.465791962
2,1, 7,21, 0, 3,20.00,30.00,SummerDesignDay
8,13.729636002354969
10,20645325.171584
321,103246.94840435854
2,1, 7,21, 0, 3,30.00,40.00,SummerDesignDay
8,13.706147375533054
10,20622411.22389952
321,12798112.217419055
2,1, 7,21, 0, 3,40.00,50.00,SummerDesignDay
8,13.682651961920304
10,20611324.259682146
321,2550986.8435208539
2,1, 7,21, 0, 3,50.00,60.00,SummerDesignDay
8,13.659136670643687
10,20572284.031715767
321,10175747.908388732
2,1, 7,21, 0, 3, 0.00,60.00,SummerDesignDay
555,21.42194532551487
595,22.47949835437791
635,22.097112865538276
675,23.99813583876384
715,20.15894894374049
2,1, 7,21, 0, 4, 0.00,10.00,SummerDesignDay
8,13.63560137410855
10,20557898.191818786
321,12783255.333738344
2,1, 7,21, 0, 4,10.00,20.00,SummerDesignDay
8,13.612040802606578
10,20529843.492555627
321,12000.0
2,1, 7,21, 0, 4,20.00,30.00,SummerDesignDay
8,13.58846620506876
10,20509697.61141176
321,12741079.007589797
2,1, 7,21, 0, 4,30.00,40.00,SummerDesignDay
8,13.56487178447336
10,20486254.637112846
321,498835.21686975369
2,1, 7,21, 0, 4,40.00,50.00,SummerDesignDay
8,13.541257354069103
10,20461330.218529725
321,12221253.382097297
2,1, 7,21, 0, 4,50.00,60.00,SummerDesignDay
8,13.517617463812285
10,20443222.27006675
321,12792268.88235315
2,1, 7,21, 0, 4, 0.00,60.00,SummerDesignDay
555,21.107172587248205
595,21.267279091614769
635,21.803756648778316
675,23.99760998040459
715,19.824232162129929
2,1, 7,21, 0, 5, 0.00,10.00,SummerDesignDay
8,13.50185415824011
10,20421437.50754078
321,12000.0
2,1, 7,21, 0, 5,10.00,20.00,SummerDesignDay
8,13.486076034032447
10,20408019.260134829
321,12746653.052392789
2,1, 7,21, 0, 5,20.00,30.00,SummerDesignDay
8,13.470289340350983
10,20389802.820911915
321,12000.0
2,1, 7,21, 0, 5,30.00,40.00,SummerDesignDay
8,13.454493322631063
10,20371515.453493466
321,12711113.709285075
2,1, 7,21, 0, 5,40.00,50.00,SummerDesignDay
8,13.438688835118548
10,20358457.28148517
321,10875729.255194694
2,1, 7,21, 0, 5,50.00,60.00,SummerDesignDay
8,13.422888173889437
10,20337443.92444537
321,1922365.5269991863
2,1, 7,21, 0, 5, 0.00,60.00,SummerDesignDay
555,20.847285754100523
595,20.734190666139747
635,21.564114429529114
675,23.99763222622353
715,19.5484156718762
2,1, 7,21, 0, 6, 0.00,10.00,SummerDesignDay
8,13.438688835118548
10,20346445.025378288
321,12752550.586652445
2,1, 7,21, 0, 6,10.00,20.00,SummerDesignDay
8,13.454493322631063
10,20348766.42623892
321,12000.0
2,1, 7,21, 0, 6,20.00,30.00,SummerDesignDay
8,13.470289340350983
10,20352887.70184393
321,12717126.621527292
2,1, 7,21, 0, 6,30.00,40.00,SummerDesignDay
8,13.486076034032447
10,20361188.61030139
321,8884861.692753127
2,1, 7,21, 0, 6,40.00,50.00,SummerDesignDay
8,13.50185415824011
10,20362987.402827436
321,3900179.2236485716
2,1, 7,21, 0, 6,50.00,60.00,SummerDesignDay
8,13.517617463812285
10,20374608.05624575
321,12759066.498210246
2,1, 7,21, 0, 6, 0.00,60.00,SummerDesignDay
555,20.68088808520648
595,20.474584199544457
635,21.403999193312037
675,23.99764063174983
715,19.426191580666865
2,1, 7,21, 0, 7, 0.00,10.00,SummerDesignDay
8,13.572736920571789
10,20399855.27382549
321,11581096.085036451
2,1, 7,21, 0, 7,10.00,20.00,SummerDesignDay
8,13.627748229152554
10,20446387.651162235
321,12734481.082310737
2,1, 7,21, 0, 7,20.00,30.00,SummerDesignDay
8,13.682651961920304
10,20472139.384776158
321,6810619.412279255
2,1, 7,21, 0, 7,30.00,40.00,SummerDesignDay
8,13.737448093244995
10,20512380.5521993
321,5957194.7874919599
2,1, 7,21, 0, 7,40.00,50.00,SummerDesignDay
8,13.792137011831216
10,20554148.304250845
321,14031429.210124452
2,1, 7,21, 0, 7,50.00,60.00,SummerDesignDay
8,13.846719282840333
10,20586140.350582415
321,12000.0
2,1, 7,21, 0, 7, 0.00,60.00,SummerDesignDay
555,20.692250981506786
595,20.465417293285428
635,21.38362726822024
675,23.997796627177
715,20.08415547828621
2,1, 7,21, 0, 8, 0.00,10.00,SummerDesignDay
8,13.978831900527043
10,30727784.909348679
321,40047334.19183089
2,1, 7,21, 0, 8,10.00,20.00,SummerDesignDay
8,14.110321014287419
10,30833975.26115143
321,15944260.737586823
2,1, 7,21, 0, 8,20.00,30.00,SummerDesignDay
8,14.241191509616986
10,30934598.936138058
321,7853770.1906397719
2,1, 7,21, 0, 8,30.00,40.00,SummerDesignDay
8,14.371447531304272
10,31031061.46543441
321,14445278.3365466
2,1, 7,21, 0, 8,40.00,50.00,SummerDesignDay
8,14.501093766564925
10,31128441.72314717
321,12000.0
2,1, 7,21, 0, 8,50.00,60.00,SummerDesignDay
8,14.630134792273804
10,31218775.106691567
321,12843229.119664383
2,1, 7,21, 0, 8, 0.00,60.00,SummerDesignDay
555,21.325214070098828
595,20.758825958339214
635,21.55230199809957
675,23.99810429313568
715,22.059011352620048
2,1, 7,21, 0, 9, 0.00,10.00,SummerDesignDay
8,14.773641492809972
10,59825531.989862669
321,19336045.821649545
2,1, 7,21, 0, 9,10.00,20.00,SummerDesignDay
8,14.91640948124148
10,60085705.45110357
321,12226902.649806042
2,1, 7,21, 0, 9,20.00,30.00,SummerDesignDay
8,15.05843890714102
10,62491632.56230384
321,7900417.127928547
2,1, 7,21, 0, 9,30.00,40.00,SummerDesignDay
8,15.199735893563798
10,64839578.77683118
321,10712839.632988017
2,1, 7,21, 0, 9,40.00,50.00,SummerDesignDay
8,15.340306256439395
10,65437141.041962157
321,15329637.932484929
2,1, 7,21, 0, 9,50.00,60.00,SummerDesignDay
8,15.48015101768072
10,66518528.64598757
321,15321814.014543346
2,1, 7,21, 0, 9, 0.00,60.00,SummerDesignDay
555,23.134280900038108
595,21.47226765645124
635,22.850645572963619
675,23.998735255260514
715,23.721048395881938
2,1, 7,21, 0,10, 0.00,10.00,SummerDesignDay
8,15.60467292907716
10,92138946.33850509
321,22642253.655916145
2,1, 7,21, 0,10,10.00,20.00,SummerDesignDay
8,15.72862731650033
10,93756886.76217436
321,23514822.36594707
2,1, 7,21, 0,10,20.00,30.00,SummerDesignDay
8,15.852017409284228
10,94430509.4447172
321,23329500.690582374
2,1, 7,21, 0,10,30.00,40.00,SummerDesignDay
8,15.974848118364367
10,95257075.6621943
321,20867699.37945367
2,1, 7,21, 0,10,40.00,50.00,SummerDesignDay
8,16.097123145563505
10,97206547.2492968
321,20850551.76093216
2,1, 7,21, 0,10,50.00,60.00,SummerDesignDay
8,16.218846351168599
10,97768557.80613016
321,20847398.2460517
2,1, 7,21, 0,10, 0.00,60.00,SummerDesignDay
555,25.661528411555257
595,23.43726964996591
635,23.99777965681106
675,23.99846832564792
715,23.999365183128618
2,1, 7,21, 0,11, 0.00,10.00,SummerDesignDay
8,16.325793027093189
10,101049114.12415394
321,23802627.97312361
2,1, 7,21, 0,11,10.00,20.00,SummerDesignDay
8,16.432322158488288
10,101852653.09096766
321,24055858.33844355
2,1, 7,21, 0,11,20.00,30.00,SummerDesignDay
8,16.538424180249178
10,102363140.09356432
321,27610704.672528134
2,1, 7,21, 0,11,30.00,40.00,SummerDesignDay
8,16.644108396469087
10,102845352.08103363
321,32428768.263165676
2,1, 7,21, 0,11,40.00,50.00,SummerDesignDay
8,16.749376736593655
10,103297632.28839663
321,27176727.35883339
2,1, 7,21, 0,11,50.00,60.00,SummerDesignDay
8,16.854232613237156
10,103729111.35499737
321,24074409.416360186
2,1, 7,21, 0,11, 0.00,60.00,SummerDesignDay
555,27.458793751742804
595,23.999093543256135
635,23.99852430283146
675,23.997209958483738
715,23.999041012990138
2,1, 7,21, 0,12, 0.00,10.00,SummerDesignDay
8,16.92390823520069
10,107212829.12886393
321,21561920.552852327
2,1, 7,21, 0,12,10.00,20.00,SummerDesignDay
8,16.99340178950456
10,107461586.48374863
321,21224459.740164736
2,1, 7,21, 0,12,20.00,30.00,SummerDesignDay
8,17.06272006743463
10,107755664.36565148
321,21219026.227144544
2,1, 7,21, 0,12,30.00,40.00,SummerDesignDay
8,17.131853229172639
10,108046257.02528149
321,21213667.68964952
2,1, 7,21, 0,12,40.00,50.00,SummerDesignDay
8,17.200807172194087
10,108325695.61745994
321,22089554.514929419
2,1, 7,21, 0,12,50.00,60.00,SummerDesignDay
8,17.269582116758607
10,108597047.42338529
321,24155508.3077629
2,1, 7,21, 0,12, 0.00,60.00,SummerDesignDay
555,28.592066548157786
595,23.99821972285459
635,23.998410220860405
675,24.0043181410838
715,23.998961813502424
2,1, 7,21, 0,13, 0.00,10.00,SummerDesignDay
8,17.32447360221357
10,109271086.070857
321,26159202.613555906
2,1, 7,21, 0,13,10.00,20.00,SummerDesignDay
8,17.379251291230806
10,109532648.13137193
321,26412499.914959134
2,1, 7,21, 0,13,20.00,30.00,SummerDesignDay
8,17.433921312061729
10,109800947.2192414
321,26425185.965954544
2,1, 7,21, 0,13,30.00,40.00,SummerDesignDay
8,17.488473222557489
10,110069489.69802875
321,23298858.914073826
2,1, 7,21, 0,13,40.00,50.00,SummerDesignDay
8,17.542913447755134
10,110335689.27884533
321,22299139.78910247
2,1, 7,21, 0,13,50.00,60.00,SummerDesignDay
8,17.59724609886134
10,110597222.70913185
321,22292596.07614096
2,1, 7,21, 0,13, 0.00,60.00,SummerDesignDay
555,29.27288430209427
595,24.016319959324958
635,23.99842683126512
675,24.046970355663544
715,23.99895223800839
2,1, 7,21, 0,14, 0.00,10.00,SummerDesignDay
8,17.6311450462694
10,110752972.65402445
321,23134772.464413857
2,1, 7,21, 0,14,10.00,20.00,SummerDesignDay
8,17.665000449016245
10,110817147.4791789
321,23215200.621481137
2,1, 7,21, 0,14,20.00,30.00,SummerDesignDay
8,17.698812743128934
10,110950396.13273719
321,24191130.94755635
2,1, 7,21, 0,14,30.00,40.00,SummerDesignDay
8,17.732582050940107
10,111117310.74605482
321,29092209.06727442
2,1, 7,21, 0,14,40.00,50.00,SummerDesignDay
8,17.766307345121004
10,111250489.65176115
321,29118545.99473721
2,1, 7,21, 0,14,50.00,60.00,SummerDesignDay
8,17.79999023167558
10,111389908.11792296
321,26348886.798320958
2,1, 7,21, 0,14, 0.00,60.00,SummerDesignDay
555,29.72825669763095
595,23.99965581539472
635,24.033797459414918
675,24.10523087238846
715,23.99892376817409
2,1, 7,21, 0,15, 0.00,10.00,SummerDesignDay
8,17.79999023167558
10,111076200.05509033
321,23238287.225320426
2,1, 7,21, 0,15,10.00,20.00,SummerDesignDay
8,17.79999023167558
10,111075955.66540692
321,23230004.09229103
2,1, 7,21, 0,15,20.00,30.00,SummerDesignDay
8,17.79999023167558
10,111082873.83928143
321,23221026.71716248
2,1, 7,21, 0,15,30.00,40.00,SummerDesignDay
8,17.79999023167558
10,111088321.60882764
321,23211864.460023475
2,1, 7,21, 0,15,40.00,50.00,SummerDesignDay
8,17.79999023167558
10,111094096.92651326
321,26336118.341767175
2,1, 7,21, 0,15,50.00,60.00,SummerDesignDay
8,17.79999023167558
10,111099825.55299442
321,29100639.14396648
2,1, 7,21, 0,15, 0.00,60.00,SummerDesignDay
555,30.037768604957845
595,23.99714155217103
635,24.12087043272547
675,24.18800624986774
715,23.998740156251118
2,1, 7,21, 0,16, 0.00,10.00,SummerDesignDay
8,17.759562446305357
10,110364416.96632312
321,24587557.754551889
2,1, 7,21, 0,16,10.00,20.00,SummerDesignDay
8,17.71907809634183
10,110096142.64351264
321,24176820.396410657
2,1, 7,21, 0,16,20.00,30.00,SummerDesignDay
8,17.67853788661001
10,109940603.47371419
321,22837291.874900626
2,1, 7,21, 0,16,30.00,40.00,SummerDesignDay
8,17.63791796367351
10,109780138.2476424
321,21244982.313944449
2,1, 7,21, 0,16,40.00,50.00,SummerDesignDay
8,17.59724609886134
10,109620499.87720157
321,21240168.236519476
2,1, 7,21, 0,16,50.00,60.00,SummerDesignDay
8,17.55650676726033
10,109461966.89224772
321,21235059.162860045
2,1, 7,21, 0,16, 0.00,60.00,SummerDesignDay
555,30.129695425128728
595,23.997973775369457
635,24.160670150478116
675,24.220703613697599
715,23.998569355751397
2,1, 7,21, 0,17, 0.00,10.00,SummerDesignDay
8,17.50209486331892
10,105084256.45453723
321,18065499.14559131
2,1, 7,21, 0,17,10.00,20.00,SummerDesignDay
8,17.447570789624618
10,103556656.6154608
321,17637563.721182117
2,1, 7,21, 0,17,20.00,30.00,SummerDesignDay
8,17.392929544208135
10,103737172.97892829
321,17631598.113179286
2,1, 7,21, 0,17,30.00,40.00,SummerDesignDay
8,17.33818013976614
10,103423842.49982104
321,17625546.415108764
2,1, 7,21, 0,17,40.00,50.00,SummerDesignDay
8,17.283317298559309
10,103205662.26599378
321,17619419.580693988
2,1, 7,21, 0,17,50.00,60.00,SummerDesignDay
8,17.22833552437677
10,102997537.10578127
321,18553968.723979225
2,1, 7,21, 0,17, 0.00,60.00,SummerDesignDay
555,29.98635593704699
595,23.998431151391967
635,24.000813084644446
675,24.189506969437116
715,23.998585461503834
2,1, 7,21, 0,18, 0.00,10.00,SummerDesignDay
8,17.159453019160176
10,93922518.36816497
321,17080689.708666024
2,1, 7,21, 0,18,10.00,20.00,SummerDesignDay
8,17.090391773337136
10,93429132.93277905
321,16834564.962127046
2,1, 7,21, 0,18,20.00,30.00,SummerDesignDay
8,17.021151077964786
10,93159165.34097944
321,16840418.919582596
2,1, 7,21, 0,18,30.00,40.00,SummerDesignDay
8,16.951729380464653
10,92882533.85994089
321,16846728.30417495
2,1, 7,21, 0,18,40.00,50.00,SummerDesignDay
8,16.882126503829249
10,92614134.14461322
321,16853055.757909076
2,1, 7,21, 0,18,50.00,60.00,SummerDesignDay
8,16.812341807494034
10,92348348.78622626
321,16859381.351448474
2,1, 7,21, 0,18, 0.00,60.00,SummerDesignDay
555,29.51143228902967
595,23.998546338395227
635,23.999335771630418
675,24.15312829036809
715,23.998729248770038
2,1, 7,21, 0,19, 0.00,10.00,SummerDesignDay
8,16.707321072823203
10,74488688.21131656
321,15477872.328649598
2,1, 7,21, 0,19,10.00,20.00,SummerDesignDay
8,16.601881826644556
10,73960402.3657107
321,14890824.139183974
2,1, 7,21, 0,19,20.00,30.00,SummerDesignDay
8,16.496030555252849
10,73521910.7143293
321,14875010.400605124
2,1, 7,21, 0,19,30.00,40.00,SummerDesignDay
8,16.389760181474104
10,73063089.00761147
321,14858915.733429039
2,1, 7,21, 0,19,40.00,50.00,SummerDesignDay
8,16.283067654262039
10,72608681.97334424
321,14842488.288414538
2,1, 7,21, 0,19,50.00,60.00,SummerDesignDay
8,16.17595057957811
10,72156594.85625905
321,14825710.745428171
2,1, 7,21, 0,19, 0.00,60.00,SummerDesignDay
555,28.333956803406897
595,23.998021143018886
635,23.999515635850476
675,24.0863148414311
715,23.999456511045925
2,1, 7,21, 0,20, 0.00,10.00,SummerDesignDay
8,16.097123145563505
10,66300095.64214883
321,17735361.18170525
2,1, 7,21, 0,20,10.00,20.00,SummerDesignDay
8,16.018070242471564
10,65954509.6355954
321,18513320.140585815
2,1, 7,21, 0,20,20.00,30.00,SummerDesignDay
8,15.938779752340516
10,65592908.05609376
321,18484000.69483666
2,1, 7,21, 0,20,30.00,40.00,SummerDesignDay
8,15.85926152575189
10,65080364.07044227
321,18492437.386586116
2,1, 7,21, 0,20,40.00,50.00,SummerDesignDay
8,15.779503718563929
10,64730807.11857659
321,18495237.53507385
2,1, 7,21, 0,20,50.00,60.00,SummerDesignDay
8,15.699515709672767
10,64329640.518083889
321,18497598.78202122
2,1, 7,21, 0,20, 0.00,60.00,SummerDesignDay
555,26.903594054225196
595,23.9971874525758
635,23.999271767553706
675,24.005216115477777
715,23.99988455326219
2,1, 7,21, 0,21, 0.00,10.00,SummerDesignDay
8,15.63389147320404
10,63992860.807002227
321,22435425.37894442
2,1, 7,21, 0,21,10.00,20.00,SummerDesignDay
8,15.56810827419793
10,63807404.00540236
321,22981885.548703825
2,1, 7,21, 0,21,20.00,30.00,SummerDesignDay
8,15.502170882753524
10,63477837.3642915
321,22757286.166380016
2,1, 7,21, 0,21,30.00,40.00,SummerDesignDay
8,15.436068032613852
10,63151786.969916958
321,20533165.962030196
2,1, 7,21, 0,21,40.00,50.00,SummerDesignDay
8,15.369804371206009
10,62826086.59275145
321,20529194.99525755
2,1, 7,21, 0,21,50.00,60.00,SummerDesignDay
8,15.303384603594449
10,62499568.74374968
321,20524719.599366465
2,1, 7,21, 0,21, 0.00,60.00,SummerDesignDay
555,25.654514268909634
595,23.996188509978983
635,23.99923951867797
675,23.996893224186555
715,23.9999479196748
2,1, 7,21, 0,22, 0.00,10.00,SummerDesignDay
8,15.236797685071274
10,53091682.40515632
321,19602749.214369775
2,1, 7,21, 0,22,10.00,20.00,SummerDesignDay
8,15.170047891787942
10,52904690.35679906
321,19490708.559671664
2,1, 7,21, 0,22,20.00,30.00,SummerDesignDay
8,15.103134826860483
10,52750130.381032098
321,19486299.769299084
2,1, 7,21, 0,22,30.00,40.00,SummerDesignDay
8,15.036063385178485
10,52594590.25303721
321,19481862.103040469
2,1, 7,21, 0,22,40.00,50.00,SummerDesignDay
8,14.968821767219835
10,52438441.501056719
321,19477379.916060606
2,1, 7,21, 0,22,50.00,60.00,SummerDesignDay
8,14.90141525878635
10,52283118.4317067
321,19472852.502833185
2,1, 7,21, 0,22, 0.00,60.00,SummerDesignDay
555,24.53386767074348
595,23.995632404006988
635,23.999331709003184
675,23.99703052162445
715,23.40318189224548
2,1, 7,21, 0,23, 0.00,10.00,SummerDesignDay
8,14.848873673278373
10,41478722.41204367
321,18864752.414456954
2,1, 7,21, 0,23,10.00,20.00,SummerDesignDay
8,14.796237168136719
10,41171350.88566651
321,20567429.17431468
2,1, 7,21, 0,23,20.00,30.00,SummerDesignDay
8,14.743494321455645
10,41002446.59959764
321,20568505.801493776
2,1, 7,21, 0,23,30.00,40.00,SummerDesignDay
8,14.690649975253665
10,40827489.41641263
321,20570019.320891277
2,1, 7,21, 0,23,40.00,50.00,SummerDesignDay
8,14.637704281233117
10,40667401.01139983
321,20571555.00840702
2,1, 7,21, 0,23,50.00,60.00,SummerDesignDay
8,14.584656914839757
10,40515734.3622494
321,20573090.17433013
2,1, 7,21, 0,23, 0.00,60.00,SummerDesignDay
555,23.551546848795664
595,23.996442236590885
635,23.999898468015166
675,23.997189822324036
715,22.536338483810725
2,1, 7,21, 0,24, 0.00,10.00,SummerDesignDay
8,14.531507212058875
10,32547003.869249014
321,20574624.696194725
2,1, 7,21, 0,24,10.00,20.00,SummerDesignDay
8,14.47825496413355
10,32412259.924821076
321,20576158.44893208
2,1, 7,21, 0,24,20.00,30.00,SummerDesignDay
8,14.4249000133173
10,32291025.2830289
321,20577691.305970167
2,1, 7,21, 0,24,30.00,40.00,SummerDesignDay
8,14.371447531304272
10,32167427.43562436
321,20579223.139325575
2,1, 7,21, 0,24,40.00,50.00,SummerDesignDay
8,14.31788619902223
10,32047545.342743923
321,20580753.81960492
2,1, 7,21, 0,24,50.00,60.00,SummerDesignDay
8,14.264220970176066
10,31930415.645701037
321,18889252.60095572
2,1, 7,21, 0,24, 0.00,60.00,SummerDesignDay
555,22.814797110126805
595,23.99723430546115
635,23.556362588964168
675,23.997334900835125
715,21.725709982189988
3,1, 7,21, 0,SummerDesignDay
556,44.032069533884818,33.49662075704876,15,60,55.4708502049446, 6,60
596,56.63723533305875,49.06268619945444,10,40,60.282158814308107,15,10
636,49.52932930033257,44.813383323193558,23,60,53.498276372489787, 7,10
676,57.19799632915235,55.520970365021828,24,50,59.492811214913668,16,60
716,50.28065188379801,44.21749264150003,10,40,59.89184115201975, 6,30
4,1, 7
7,22.2505,16.5,21, 5,60,28.9,21,14,60
1,FORT MCMURRAY AP ANN HTG 99.6% CONDNS DB,  56.65,-111.22,  -7.00, 369.10
2,1, 1,21, 0, 1, 0.00,10.00,WinterDesignDay
8,-36.2
10,27032791.200854828
321,335619451.24123147
2,1, 1,21, 0, 1,10.00,20.00,WinterDesignDay
8,-36.2
10,27032789.515713775
321,334720886.1841197
2,1, 1,21, 0, 1,20.00,30.00,WinterDesignDay
8,-36.2
10,27032788.683264145
321,335893154.78653898
2,1, 1,21, 0, 1,30.00,40.00,WinterDesignDay
8,-36.2
10,27032788.019742319
321,336204379.54658618
2,1, 1,21, 0, 1,40.00,50.00,WinterDesignDay
8,-36.2
10,27032787.422437237
321,336438344.70422849
2,1, 1,21, 0, 1,50.00,60.00,WinterDesignDay
8,-36.2
10,27032786.92513446
321,336630199.1745322
2,1, 1,21, 0, 1, 0.00,60.00,WinterDesignDay
555,8.103799238564413
595,22.000001226268894
635,18.000091662960928
675,21.998143514025157
715,17.999991534342759
2,1, 1,21, 0, 2, 0.00,10.00,WinterDesignDay
8,-36.2
10,22802812.42814955
321,337163727.66301479
2,1, 1,21, 0, 2,10.00,20.00,WinterDesignDay
8,-36.2
10,22802811.33489607
321,338717544.32596459
2,1, 1,21, 0, 2,20.00,30.00,WinterDesignDay
8,-36.2
10,22802810.970026785
321,341113565.3837056
2,1, 1,21, 0, 2,30.00,40.00,WinterDesignDay
8,-36.2
10,22802810.77137655
321,341379313.159851
2,1, 1,21, 0, 2,40.00,50.00,WinterDesignDay
8,-36.2
10,22802810.234870707
321,341592324.91680076
2,1, 1,21, 0, 2,50.00,60.00,WinterDesignDay
8,-36.2
10,22802810.102437218
321,341765914.1186755
2,1, 1,21, 0, 2, 0.00,60.00,WinterDesignDay
555,7.8839215547636469
595,22.000000636984895
635,17.999990458000249
675,21.585289979146919
715,17.999993439557519
2,1, 1,21, 0, 3, 0.00,10.00,WinterDesignDay
8,-36.2
10,18572843.850114235
321,324321405.7048018
2,1, 1,21, 0, 3,10.00,20.00,WinterDesignDay
8,-36.2
10,18572843.850114235
321,311491290.06342688
2,1, 1,21, 0, 3,20.00,30.00,WinterDesignDay
8,-36.2
10,18572843.850114235
321,325249704.3041376
2,1, 1,21, 0, 3,30.00,40.00,WinterDesignDay
8,-36.2
10,18572843.850114235
321,325882446.4083338
2,1, 1,21, 0, 3,40.00,50.00,WinterDesignDay
8,-36.2
10,18572843.850114235
321,313196601.6266464
2,1, 1,21, 0, 3,50.00,60.00,WinterDesignDay
8,-36.2
10,18572843.850114235
321,326833933.14470186
2,1, 1,21, 0, 3, 0.00,60.00,WinterDesignDay
555,7.744476666118949
595,19.6193777859785
635,17.999990109872387
675,21.29722378289436
715,17.99999772105381
2,1, 1,21, 0, 4, 0.00,10.00,WinterDesignDay
8,-36.2
10,18572850.73665571
321,328194527.7161223
2,1, 1,21, 0, 4,10.00,20.00,WinterDesignDay
8,-36.2
10,18572843.850114235
321,322488615.78775647
2,1, 1,21, 0, 4,20.00,30.00,WinterDesignDay
8,-36.2
10,18572845.637966347
321,333305787.7910526
2,1, 1,21, 0, 4,30.00,40.00,WinterDesignDay
8,-36.2
10,18572844.84336541
321,334270470.03480407
2,1, 1,21, 0, 4,40.00,50.00,WinterDesignDay
8,-36.2
10,18572844.64471517
321,321158910.5062617
2,1, 1,21, 0, 4,50.00,60.00,WinterDesignDay
8,-36.2
10,18572844.578498428
321,334544221.2273526
2,1, 1,21, 0, 4, 0.00,60.00,WinterDesignDay
555,7.5796997807767509
595,18.000729010282485
635,17.99998402643783
675,21.192976017653796
715,17.999994734199544
2,1, 1,21, 0, 5, 0.00,10.00,WinterDesignDay
8,-36.2
10,18572844.446064939
321,334731400.9078163
2,1, 1,21, 0, 5,10.00,20.00,WinterDesignDay
8,-36.2
10,18572844.379848195
321,321527009.9087063
2,1, 1,21, 0, 5,20.00,30.00,WinterDesignDay
8,-36.2
10,18572844.31363145
321,334851274.9269784
2,1, 1,21, 0, 5,30.00,40.00,WinterDesignDay
8,-36.2
10,18572844.247414706
321,334988486.1421201
2,1, 1,21, 0, 5,40.00,50.00,WinterDesignDay
8,-36.2
10,18572844.247414706
321,321737309.6047216
2,1, 1,21, 0, 5,50.00,60.00,WinterDesignDay
8,-36.2
10,18572844.18119796
321,335026083.47769966
2,1, 1,21, 0, 5, 0.00,60.00,WinterDesignDay
555,7.443846732547063
595,18.000000264519849
635,17.999989224081998
675,21.13947366439645
715,17.99999494199931
2,1, 1,21, 0, 6, 0.00,10.00,WinterDesignDay
8,-36.2
10,18572843.850114235
321,335136061.84682777
2,1, 1,21, 0, 6,10.00,20.00,WinterDesignDay
8,-36.2
10,18572843.850114235
321,321862781.4470363
2,1, 1,21, 0, 6,20.00,30.00,WinterDesignDay
8,-36.2
10,18572843.850114235
321,335132740.6246277
2,1, 1,21, 0, 6,30.00,40.00,WinterDesignDay
8,-36.2
10,18572843.850114235
321,335227420.06543508
2,1, 1,21, 0, 6,40.00,50.00,WinterDesignDay
8,-36.2
10,18572843.850114235
321,321942903.34098055
2,1, 1,21, 0, 6,50.00,60.00,WinterDesignDay
8,-36.2
10,18572843.850114235
321,335204826.2343267
2,1, 1,21, 0, 6, 0.00,60.00,WinterDesignDay
555,7.3723252260704419
595,17.99997322225514
635,17.999991767925736
675,21.11521263631792
715,17.999995041173837
2,1, 1,21, 0, 7, 0.00,10.00,WinterDesignDay
8,-36.2
10,18572843.850114235
321,367766757.21401777
2,1, 1,21, 0, 7,10.00,20.00,WinterDesignDay
8,-36.2
10,18572843.850114235
321,316245831.88876548
2,1, 1,21, 0, 7,20.00,30.00,WinterDesignDay
8,-36.2
10,18572843.850114235
321,347938302.7657212
2,1, 1,21, 0, 7,30.00,40.00,WinterDesignDay
8,-36.2
10,18572843.850114235
321,345865081.0446236
2,1, 1,21, 0, 7,40.00,50.00,WinterDesignDay
8,-36.2
10,18572843.850114235
321,331530588.3807434
2,1, 1,21, 0, 7,50.00,60.00,WinterDesignDay
8,-36.2
10,18572843.850114235
321,344666659.9297879
2,1, 1,21, 0, 7, 0.00,60.00,WinterDesignDay
555,7.344730481790152
595,17.999983754682594
635,17.999994060067853
675,21.108299160218306
715,19.95701628636424
2,1, 1,21, 0, 8, 0.00,10.00,WinterDesignDay
8,-36.2
10,28485932.10377271
321,395579462.17018237
2,1, 1,21, 0, 8,10.00,20.00,WinterDesignDay
8,-36.2
10,28482136.382885525
321,347684578.07304349
2,1, 1,21, 0, 8,20.00,30.00,WinterDesignDay
8,-36.2
10,28482136.382885525
321,354292382.6728568
2,1, 1,21, 0, 8,30.00,40.00,WinterDesignDay
8,-36.2
10,28482136.382885525
321,355981762.14326599
2,1, 1,21, 0, 8,40.00,50.00,WinterDesignDay
8,-36.2
10,28482136.382885525
321,339100173.766801
2,1, 1,21, 0, 8,50.00,60.00,WinterDesignDay
8,-36.2
10,28482136.382885525
321,352123862.0819006
2,1, 1,21, 0, 8, 0.00,60.00,WinterDesignDay
555,7.7493437041485839
595,17.99998376810413
635,19.938305680654325
675,21.146664708963315
715,21.950276674695077
2,1, 1,21, 0, 9, 0.00,10.00,WinterDesignDay
8,-36.2
10,57025010.009474728
321,398619961.1118177
2,1, 1,21, 0, 9,10.00,20.00,WinterDesignDay
8,-36.2
10,57019398.88527518
321,360564725.53994157
2,1, 1,21, 0, 9,20.00,30.00,WinterDesignDay
8,-36.2
10,57019399.249467279
321,346696276.4342326
2,1, 1,21, 0, 9,30.00,40.00,WinterDesignDay
8,-36.2
10,57019398.88527518
321,338728003.0486571
2,1, 1,21, 0, 9,40.00,50.00,WinterDesignDay
8,-36.2
10,57019398.88527518
321,337635082.6890569
2,1, 1,21, 0, 9,50.00,60.00,WinterDesignDay
8,-36.2
10,57019398.88527518
321,337004383.8034239
2,1, 1,21, 0, 9, 0.00,60.00,WinterDesignDay
555,9.209087438853679
595,19.935191466219817
635,21.93278381156757
675,22.00884260596344
715,21.999787261984055
2,1, 1,21, 0,10, 0.00,10.00,WinterDesignDay
8,-36.2
10,77727938.10292807
321,351054886.2608335
2,1, 1,21, 0,10,10.00,20.00,WinterDesignDay
8,-36.2
10,77722978.50116326
321,339223766.7689711
2,1, 1,21, 0,10,20.00,30.00,WinterDesignDay
8,-36.2
10,77722981.20393427
321,330405328.8322114
2,1, 1,21, 0,10,30.00,40.00,WinterDesignDay
8,-36.2
10,77722979.81880014
321,336324288.60271337
2,1, 1,21, 0,10,40.00,50.00,WinterDesignDay
8,-36.2
10,77722982.15534748
321,326039561.43317988
2,1, 1,21, 0,10,50.00,60.00,WinterDesignDay
8,-36.2
10,77722982.95942906
321,325226396.40190777
2,1, 1,21, 0,10, 0.00,60.00,WinterDesignDay
555,10.71934016642112
595,21.939657218746949
635,22.00000066922642
675,21.998365603942216
715,21.999453869718285
2,1, 1,21, 0,11, 0.00,10.00,WinterDesignDay
8,-36.2
10,79837967.68427308
321,324616290.5132198
2,1, 1,21, 0,11,10.00,20.00,WinterDesignDay
8,-36.2
10,79837968.75457601
321,336525576.95273438
2,1, 1,21, 0,11,20.00,30.00,WinterDesignDay
8,-36.2
10,79837970.09380906
321,323182639.1390247
2,1, 1,21, 0,11,30.00,40.00,WinterDesignDay
8,-36.2
10,79837971.36682536
321,328671711.5044147
2,1, 1,21, 0,11,40.00,50.00,WinterDesignDay
8,-36.2
10,79837972.43712829
321,329281612.31619629
2,1, 1,21, 0,11,50.00,60.00,WinterDesignDay
8,-36.2
10,79837973.37499774
321,322114061.3528689
2,1, 1,21, 0,11, 0.00,60.00,WinterDesignDay
555,11.739405436549597
595,21.9999990596134
635,21.99999996951658
675,21.997794790585926
715,21.999064378248265