Program Version,EnergyPlus, Version 8.9.0-eba93e8e1b, YMD=2019.04.04 18:00
1,5,Environment Title[],Latitude[deg],Longitude[deg],Time Zone[],Elevation[m]
2,8,Day of Simulation[],Month[],Day of Month[],DST Indicator[1=yes 0=no],Hour[],StartMinute[],EndMinute[],DayType
3,5,Cumulative Day of Simulation[],Month[],Day of Month[],DST Indicator[1=yes 0=no],DayType  ! When Daily Report Variables Requested
4,2,Cumulative Days of Simulation[],Month[]  ! When Monthly Report Variables Requested
5,1,Cumulative Days of Simulation[] ! When Run Period Report Variables Requested
6,1,Calendar Year of Simulation[] ! When Annual Report Variables Requested
7,9,Environment,Site Outdoor Air Drybulb Temperature [C] !Monthly [Value,Min,Day,Hour,Minute,Max,Day,Hour,Minute]
8,1,Environment,Site Outdoor Air Wetbulb Temperature [C] !TimeStep
357,1,CONVENTION CENTRE EXHIBIT SPACE-SPACE FUNCTION ZN,Zone Air Temperature [C] !Hourly
358,7,CONVENTION CENTRE EXHIBIT SPACE-SPACE FUNCTION ZN,Zone Air Relative Humidity [%] !Daily [Value,Min,Hour,Minute,Max,Hour,Minute]
397,1,DORMITORY LIVING QUARTERS-SPACE FUNCTION ZN,Zone Air Temperature [C] !Hourly
398,7,DORMITORY LIVING QUARTERS-SPACE FUNCTION ZN,Zone Air Relative Humidity [%] !Daily [Value,Min,Hour,Minute,Max,Hour,Minute]
437,1,DWELLING UNITS GENERAL-SPACE FUNCTION ZN,Zone Air Temperature [C] !Hourly
438,7,DWELLING UNITS GENERAL-SPACE FUNCTION ZN,Zone Air Relative Humidity [%] !Daily [Value,Min,Hour,Minute,Max,Hour,Minute]
477,1,DWELLING UNITS LONG-TERM-SPACE FUNCTION ZN,Zone Air Temperature [C] !Hourly
478,7,DWELLING UNITS LONG-TERM-SPACE FUNCTION ZN,Zone Air Relative Humidity [%] !Daily [Value,Min,Hour,Minute,Max,Hour,Minute]
517,1,WORKSHOP-SPACE FUNCTION ZN,Zone Air Temperature [C] !Hourly
518,7,WORKSHOP-SPACE FUNCTION ZN,Zone Air Relative Humidity [%] !Daily [Value,Min,Hour,Minute,Max,Hour,Minute]
10,1,Electricity:Facility [J] !TimeStep
668,1,DistrictCooling:Facility [J] !TimeStep
631,1,DistrictHeating:Facility [J] !TimeStep
End of Data Dictionary
1,FORT MCMURRAY AP ANN CLG .4% CONDNS DB=>MWB,  56.65,-111.22,  -7.00, 369.10
2,1, 7,21, 0, 1, 0.00,10.00,SummerDesignDay
8,14.218136923962174
10,11798036.103816947
631,0.0
668,1363859.9726725245
2,1, 7,21, 0, 1,10.00,20.00,SummerDesignDay
8,14.171982153293495
10,11798036.103816947
631,0.0
668,1058424.8072277017
2,1, 7,21, 0, 1,20.00,30.00,SummerDesignDay
8,14.125744780286427
10,11798036.103816947
631,0.0
668,877264.7278828276
2,1, 7,21, 0, 1,30.00,40.00,SummerDesignDay
8,14.079436086331978
10,11798036.103816947
631,0.0
668,700512.5894860772
2,1, 7,21, 0, 1,40.00,50.00,SummerDesignDay
8,14.033050387896898
10,11798036.103816947
631,0.0
668,534716.5014676448
2,1, 7,21, 0, 1,50.00,60.00,SummerDesignDay
8,13.986581233564835
10,11798036.103816947
631,0.0
668,377580.885074761
2,1, 7,21, 0, 1, 0.00,60.00,SummerDesignDay
357,21.255180275452259
397,23.65314315430298
437,24.0
477,23.274354203179724
517,20.81619638848699
2,1, 7,21, 0, 2, 0.00,10.00,SummerDesignDay
8,13.95555882260429
10,7847851.042666156
631,0.0
668,0.0
2,1, 7,21, 0, 2,10.00,20.00,SummerDesignDay
8,13.924507755336454
10,7847851.042666156
631,0.0
668,0.0
2,1, 7,21, 0, 2,20.00,30.00,SummerDesignDay
8,13.893416042989206
10,7847851.042666156
631,0.0
668,0.0
2,1, 7,21, 0, 2,30.00,40.00,SummerDesignDay
8,13.862289589689029
10,7847851.042666156
631,0.0
668,0.0
2,1, 7,21, 0, 2,40.00,50.00,SummerDesignDay
8,13.831134407608739
10,7847851.042666156
631,0.0
668,0.0
2,1, 7,21, 0, 2,50.00,60.00,SummerDesignDay
8,13.799938415548118
10,7847851.042666156
631,0.0
668,0.0
2,1, 7,21, 0, 2, 0.00,60.00,SummerDesignDay
357,20.795040572962138
397,22.901390310950519
437,23.685840904736439
477,22.68196401775297
517,20.276001757229929
2,1, 7,21, 0, 3, 0.00,10.00,SummerDesignDay
8,13.776521671948676
10,7847851.042666156
631,0.0
668,0.0
2,1, 7,21, 0, 3,10.00,20.00,SummerDesignDay
8,13.753085235778466
10,7847851.042666156
631,0.0
668,0.0
2,1, 7,21, 0, 3,20.00,30.00,SummerDesignDay
8,13.729636002354969
10,7847851.042666156
631,0.0
668,0.0
2,1, 7,21, 0, 3,30.00,40.00,SummerDesignDay
8,13.706147375533054
10,7847851.042666156
631,0.0
668,0.0
2,1, 7,21, 0, 3,40.00,50.00,SummerDesignDay
8,13.682651961920304
10,7847851.042666156
631,0.0
668,0.0
2,1, 7,21, 0, 3,50.00,60.00,SummerDesignDay
8,13.659136670643687
10,7847851.042666156
631,0.0
668,0.0
2,1, 7,21, 0, 3, 0.00,60.00,SummerDesignDay
357,20.43122834578688
397,22.33259844680185
437,23.21526979525977
477,22.319946776454587
517,19.868304210369194
2,1, 7,21, 0, 4, 0.00,10.00,SummerDesignDay
8,13.63560137410855
10,7847851.042666156
631,0.0
668,0.0
2,1, 7,21, 0, 4,10.00,20.00,SummerDesignDay
8,13.612040802606578
10,7847851.042666156
631,0.0
668,0.0
2,1, 7,21, 0, 4,20.00,30.00,SummerDesignDay
8,13.58846620506876
10,7847851.042666156
631,0.0
668,0.0
2,1, 7,21, 0, 4,30.00,40.00,SummerDesignDay
8,13.56487178447336
10,7847851.042666156
631,0.0
668,0.0
2,1, 7,21, 0, 4,40.00,50.00,SummerDesignDay
8,13.541257354069103
10,7847851.042666156
631,0.0
668,0.0
2,1, 7,21, 0, 4,50.00,60.00,SummerDesignDay
8,13.517617463812285
10,7847851.042666156
631,581277.829967017
668,0.0
2,1, 7,21, 0, 4, 0.00,60.00,SummerDesignDay
357,20.145064731776328
397,22.010787336061147
437,22.89547798506843
477,22.066370053943463
517,19.54712460879781
2,1, 7,21, 0, 5, 0.00,10.00,SummerDesignDay
8,13.50185415824011
10,7847851.042666156
631,391285.7034007448
668,0.0
2,1, 7,21, 0, 5,10.00,20.00,SummerDesignDay
8,13.486076034032447
10,7847851.042666156
631,509725.09153958977
668,0.0
2,1, 7,21, 0, 5,20.00,30.00,SummerDesignDay
8,13.470289340350983
10,7847851.042666156
631,572403.3914340385
668,0.0
2,1, 7,21, 0, 5,30.00,40.00,SummerDesignDay
8,13.454493322631063
10,7847851.042666156
631,624260.71692133
668,0.0
2,1, 7,21, 0, 5,40.00,50.00,SummerDesignDay
8,13.438688835118548
10,7847851.042666156
631,674369.5044500716
668,0.0
2,1, 7,21, 0, 5,50.00,60.00,SummerDesignDay
8,13.422888173889437
10,7847851.042666156
631,723070.5964096102
668,0.0
2,1, 7,21, 0, 5, 0.00,60.00,SummerDesignDay
357,19.912475298626018
397,21.786079339449583
437,22.67539499017703
477,22.000001076018735
517,19.28217549811075
2,1, 7,21, 0, 6, 0.00,10.00,SummerDesignDay
8,13.438688835118548
10,9254612.104329544
631,0.0
668,0.0
2,1, 7,21, 0, 6,10.00,20.00,SummerDesignDay
8,13.454493322631063
10,9254612.104329544
631,0.0
668,0.0
2,1, 7,21, 0, 6,20.00,30.00,SummerDesignDay
8,13.470289340350983
10,9254612.104329544
631,0.0
668,0.0
2,1, 7,21, 0, 6,30.00,40.00,SummerDesignDay
8,13.486076034032447
10,9254612.104329544
631,0.0
668,0.0
2,1, 7,21, 0, 6,40.00,50.00,SummerDesignDay
8,13.50185415824011
10,9254612.104329544
631,0.0
668,0.0
2,1, 7,21, 0, 6,50.00,60.00,SummerDesignDay
8,13.517617463812285
10,9254612.104329544
631,0.0
668,0.0
2,1, 7,21, 0, 6, 0.00,60.00,SummerDesignDay
357,19.78229146518211
397,21.656571767246516
437,22.547362386420678
477,22.060172008615955
517,19.168186422740033
2,1, 7,21, 0, 7, 0.00,10.00,SummerDesignDay
8,13.572736920571789
10,12732125.448761439
631,17507195.855748748
668,0.0
2,1, 7,21, 0, 7,10.00,20.00,SummerDesignDay
8,13.627748229152554
10,12732125.448761439
631,0.0
668,0.0
2,1, 7,21, 0, 7,20.00,30.00,SummerDesignDay
8,13.682651961920304
10,12732125.448761439
631,0.0
668,0.0
2,1, 7,21, 0, 7,30.00,40.00,SummerDesignDay
8,13.737448093244995
10,12732125.448761439
631,1263197.867935486
668,0.0
2,1, 7,21, 0, 7,40.00,50.00,SummerDesignDay
8,13.792137011831216
10,12732125.448761439
631,3115354.3392660676
668,0.0
2,1, 7,21, 0, 7,50.00,60.00,SummerDesignDay
8,13.846719282840333
10,12732125.448761439
631,613120.266336024
668,0.0
2,1, 7,21, 0, 7, 0.00,60.00,SummerDesignDay
357,19.86865483534393
397,21.83122587793194
437,22.73461042574452
477,22.407859296356198
517,20.15516548837633
2,1, 7,21, 0, 8, 0.00,10.00,SummerDesignDay
8,13.978831900527043
10,30262243.958502786
631,41065856.54998005
668,0.0
2,1, 7,21, 0, 8,10.00,20.00,SummerDesignDay
8,14.110321014287419
10,30262243.958502786
631,1603821.4570029183
668,0.0
2,1, 7,21, 0, 8,20.00,30.00,SummerDesignDay
8,14.241191509616986
10,30262243.958502786
631,16674551.439240862
668,0.0
2,1, 7,21, 0, 8,30.00,40.00,SummerDesignDay
8,14.371447531304272
10,30262243.958502786
631,0.0
668,0.0
2,1, 7,21, 0, 8,40.00,50.00,SummerDesignDay
8,14.501093766564925
10,30262243.958502786
631,0.0
668,0.0
2,1, 7,21, 0, 8,50.00,60.00,SummerDesignDay
8,14.630134792273804
10,30262243.958502786
631,0.0
668,5265016.386729741
2,1, 7,21, 0, 8, 0.00,60.00,SummerDesignDay
357,20.278795652632146
397,22.490520576196507
437,23.59192439047206
477,22.96745857589252
517,22.15984802902413
2,1, 7,21, 0, 9, 0.00,10.00,SummerDesignDay
8,14.773641492809972
10,60449460.660383548
631,20506697.199335107
668,3714169.441590673
2,1, 7,21, 0, 9,10.00,20.00,SummerDesignDay
8,14.91640948124148
10,60449460.660383548
631,0.0
668,4316808.156970013
2,1, 7,21, 0, 9,20.00,30.00,SummerDesignDay
8,15.05843890714102
10,60449460.660383548
631,0.0
668,10749773.45101766
2,1, 7,21, 0, 9,30.00,40.00,SummerDesignDay
8,15.199735893563798
10,60449460.660383548
631,0.0
668,27307952.16439582
2,1, 7,21, 0, 9,40.00,50.00,SummerDesignDay
8,15.340306256439395
10,60449460.660383548
631,0.0
668,32985989.280157828
2,1, 7,21, 0, 9,50.00,60.00,SummerDesignDay
8,15.48015101768072
10,60449460.660383548
631,0.0
668,40974437.8522885
2,1, 7,21, 0, 9, 0.00,60.00,SummerDesignDay
357,23.264398108815646
397,23.379568613041568
437,23.9999994574523
477,23.746358874984606
517,23.6651717723697
2,1, 7,21, 0,10, 0.00,10.00,SummerDesignDay
8,15.60467292907716
10,64170812.5888371
631,0.0
668,53027864.51595957
2,1, 7,21, 0,10,10.00,20.00,SummerDesignDay
8,15.72862731650033
10,64170812.5888371
631,0.0
668,56549380.41343226
2,1, 7,21, 0,10,20.00,30.00,SummerDesignDay
8,15.852017409284228
10,64170812.5888371
631,0.0
668,60007712.33576442
2,1, 7,21, 0,10,30.00,40.00,SummerDesignDay
8,15.974848118364367
10,64170812.5888371
631,0.0
668,63679390.93733607
2,1, 7,21, 0,10,40.00,50.00,SummerDesignDay
8,16.097123145563505
10,64170812.5888371
631,0.0
668,66943949.61803183
2,1, 7,21, 0,10,50.00,60.00,SummerDesignDay
8,16.218846351168599
10,64170812.5888371
631,0.0
668,69695779.01181044
2,1, 7,21, 0,10, 0.00,60.00,SummerDesignDay
357,23.999923384630404
397,23.9860986815137
437,24.0
477,23.999999987109008
517,23.999999892880056
2,1, 7,21, 0,11, 0.00,10.00,SummerDesignDay
8,16.325793027093189
10,63889460.37650442
631,0.0
668,74739228.05380795
2,1, 7,21, 0,11,10.00,20.00,SummerDesignDay
8,16.432322158488288
10,63889460.37650442
631,0.0
668,77267207.4823204
2,1, 7,21, 0,11,20.00,30.00,SummerDesignDay
8,16.538424180249178
10,63889460.37650442
631,0.0
668,79701758.02270761
2,1, 7,21, 0,11,30.00,40.00,SummerDesignDay
8,16.644108396469087
10,63889460.37650442
631,0.0
668,82103322.51094619
2,1, 7,21, 0,11,40.00,50.00,SummerDesignDay
8,16.749376736593655
10,63889460.37650442
631,0.0
668,84449769.29647903
2,1, 7,21, 0,11,50.00,60.00,SummerDesignDay
8,16.854232613237156
10,63889460.37650442
631,0.0
668,86772208.76024062
2,1, 7,21, 0,11, 0.00,60.00,SummerDesignDay
357,23.999999999994
397,23.999999992231296
437,24.0
477,24.000000000000026
517,23.99999999999969
2,1, 7,21, 0,12, 0.00,10.00,SummerDesignDay
8,16.92390823520069
10,63326755.951839078
631,0.0
668,88016258.9828592
2,1, 7,21, 0,12,10.00,20.00,SummerDesignDay
8,16.99340178950456
10,63326755.951839078
631,0.0
668,89490723.9251034
2,1, 7,21, 0,12,20.00,30.00,SummerDesignDay
8,17.06272006743463
10,63326755.951839078
631,0.0
668,90964348.40034646
2,1, 7,21, 0,12,30.00,40.00,SummerDesignDay
8,17.131853229172639
10,63326755.951839078
631,0.0
668,92423101.90199653
2,1, 7,21, 0,12,40.00,50.00,SummerDesignDay
8,17.200807172194087
10,63326755.951839078
631,0.0
668,93876163.23601748
2,1, 7,21, 0,12,50.00,60.00,SummerDesignDay
8,17.269582116758607
10,63326755.951839078
631,0.0
668,95323924.91710115
2,1, 7,21, 0,12, 0.00,60.00,SummerDesignDay
357,23.99999999999999
397,24.000000000000005
437,24.0
477,24.00000000000001
517,24.00000000000001
2,1, 7,21, 0,13, 0.00,10.00,SummerDesignDay
8,17.32447360221357
10,62482699.31484103
631,0.0
668,96099764.60077831
2,1, 7,21, 0,13,10.00,20.00,SummerDesignDay
8,17.379251291230806
10,62482699.31484103
631,0.0
668,97230971.57507012
2,1, 7,21, 0,13,20.00,30.00,SummerDesignDay
8,17.433921312061729
10,62482699.31484103
631,0.0
668,98416646.72732145
2,1, 7,21, 0,13,30.00,40.00,SummerDesignDay
8,17.488473222557489
10,62482699.31484103
631,0.0
668,99600216.67312801
2,1, 7,21, 0,13,40.00,50.00,SummerDesignDay
8,17.542913447755134
10,62482699.31484103
631,0.0
668,100775592.84791333
2,1, 7,21, 0,13,50.00,60.00,SummerDesignDay
8,17.59724609886134
10,62482699.31484103
631,0.0
668,101942963.26536745
2,1, 7,21, 0,13, 0.00,60.00,SummerDesignDay
357,23.99999999999999
397,24.000000000000005
437,24.0
477,24.000000000000015
517,24.000000000000044
2,1, 7,21, 0,14, 0.00,10.00,SummerDesignDay
8,17.6311450462694
10,62482699.31484103
631,0.0
668,102677969.82321057
2,1, 7,21, 0,14,10.00,20.00,SummerDesignDay
8,17.665000449016245
10,62482699.31484103
631,0.0
668,103403316.62403655
2,1, 7,21, 0,14,20.00,30.00,SummerDesignDay
8,17.698812743128934
10,62482699.31484103
631,0.0
668,104097703.9200459
2,1, 7,21, 0,14,30.00,40.00,SummerDesignDay
8,17.732582050940107
10,62482699.31484103
631,0.0
668,104789236.98208353
2,1, 7,21, 0,14,40.00,50.00,SummerDesignDay
8,17.766307345121004
10,62482699.31484103
631,0.0
668,105478626.42450969
2,1, 7,21, 0,14,50.00,60.00,SummerDesignDay
8,17.79999023167558
10,62482699.31484103
631,0.0
668,106166081.47616896
2,1, 7,21, 0,14, 0.00,60.00,SummerDesignDay
357,24.0
397,24.000000000000005
437,24.0
477,24.0
517,24.00000000000003
2,1, 7,21, 0,15, 0.00,10.00,SummerDesignDay
8,17.79999023167558
10,62764051.52717371
631,0.0
668,107856942.47874573
2,1, 7,21, 0,15,10.00,20.00,SummerDesignDay
8,17.79999023167558
10,62764051.52717371
631,0.0
668,107964288.70961568
2,1, 7,21, 0,15,20.00,30.00,SummerDesignDay
8,17.79999023167558
10,62764051.52717371
631,0.0
668,107973978.96361533
2,1, 7,21, 0,15,30.00,40.00,SummerDesignDay
8,17.79999023167558
10,62764051.52717371
631,0.0
668,107992281.17409615
2,1, 7,21, 0,15,40.00,50.00,SummerDesignDay
8,17.79999023167558
10,62764051.52717371
631,0.0
668,108009969.03343275
2,1, 7,21, 0,15,50.00,60.00,SummerDesignDay
8,17.79999023167558
10,62764051.52717371
631,0.0
668,108025172.10955532
2,1, 7,21, 0,15, 0.00,60.00,SummerDesignDay
357,24.000000000000026
397,24.000000000000005
437,24.0
477,24.00000000000001
517,23.999999999999987
2,1, 7,21, 0,16, 0.00,10.00,SummerDesignDay
8,17.759562446305357
10,62764051.52717371
631,0.0
668,107221811.69214532
2,1, 7,21, 0,16,10.00,20.00,SummerDesignDay
8,17.71907809634183
10,62764051.52717371
631,0.0
668,106416773.81087372
2,1, 7,21, 0,16,20.00,30.00,SummerDesignDay
8,17.67853788661001
10,62764051.52717371
631,0.0
668,105611346.75513858
2,1, 7,21, 0,16,30.00,40.00,SummerDesignDay
8,17.63791796367351
10,62764051.52717371
631,0.0
668,104788721.99316325
2,1, 7,21, 0,16,40.00,50.00,SummerDesignDay
8,17.59724609886134
10,62764051.52717371
631,0.0
668,103942615.22657693
2,1, 7,21, 0,16,50.00,60.00,SummerDesignDay
8,17.55650676726033
10,62764051.52717371
631,0.0
668,103095608.154906
2,1, 7,21, 0,16, 0.00,60.00,SummerDesignDay
357,24.00000000000001
397,24.0
437,24.000000000000005
477,24.00000000000001
517,24.000000000000015
2,1, 7,21, 0,17, 0.00,10.00,SummerDesignDay
8,17.50209486331892
10,63326755.951839078
631,0.0
668,103249385.17132616
2,1, 7,21, 0,17,10.00,20.00,SummerDesignDay
8,17.447570789624618
10,63326755.951839078
631,0.0
668,102199470.12277305
2,1, 7,21, 0,17,20.00,30.00,SummerDesignDay
8,17.392929544208135
10,63326755.951839078
631,0.0
668,101098773.354696
2,1, 7,21, 0,17,30.00,40.00,SummerDesignDay
8,17.33818013976614
10,63326755.951839078
631,0.0
668,100003246.54125425
2,1, 7,21, 0,17,40.00,50.00,SummerDesignDay
8,17.283317298559309
10,63326755.951839078
631,0.0
668,98902837.97986052
2,1, 7,21, 0,17,50.00,60.00,SummerDesignDay
8,17.22833552437677
10,63326755.951839078
631,0.0
668,97795867.70248634
2,1, 7,21, 0,17, 0.00,60.00,SummerDesignDay
357,24.000000000000026
397,24.000000000000005
437,23.999999999999998
477,24.0
517,24.00000000000003
2,1, 7,21, 0,18, 0.00,10.00,SummerDesignDay
8,17.159453019160176
10,58213648.413046557
631,0.0
668,92270423.49626987
2,1, 7,21, 0,18,10.00,20.00,SummerDesignDay
8,17.090391773337136
10,58213648.413046557
631,0.0
668,90316824.6089058
2,1, 7,21, 0,18,20.00,30.00,SummerDesignDay
8,17.021151077964786
10,58213648.413046557
631,0.0
668,88799012.29035264
2,1, 7,21, 0,18,30.00,40.00,SummerDesignDay
8,16.951729380464653
10,58213648.413046557
631,0.0
668,87236367.46685419
2,1, 7,21, 0,18,40.00,50.00,SummerDesignDay
8,16.882126503829249
10,58213648.413046557
631,0.0
668,85672099.9449153
2,1, 7,21, 0,18,50.00,60.00,SummerDesignDay
8,16.812341807494034
10,58213648.413046557
631,0.0
668,84136204.99990112
2,1, 7,21, 0,18, 0.00,60.00,SummerDesignDay
357,24.000000000000047
397,24.000000000000005
437,24.000000000000005
477,24.000000000000005
517,24.000000000000005
2,1, 7,21, 0,19, 0.00,10.00,SummerDesignDay
8,16.707321072823203
10,51221108.095871727
631,0.0
668,76839790.85695343
2,1, 7,21, 0,19,10.00,20.00,SummerDesignDay
8,16.601881826644556
10,51221108.095871727
631,0.0
668,73801791.76619983
2,1, 7,21, 0,19,20.00,30.00,SummerDesignDay
8,16.496030555252849
10,51221108.095871727
631,0.0
668,71109472.62252844
2,1, 7,21, 0,19,30.00,40.00,SummerDesignDay
8,16.389760181474104
10,51221108.095871727
631,0.0
668,68284952.1315687
2,1, 7,21, 0,19,40.00,50.00,SummerDesignDay
8,16.283067654262039
10,51221108.095871727
631,0.0
668,65527553.90047857
2,1, 7,21, 0,19,50.00,60.00,SummerDesignDay
8,16.17595057957811
10,51221108.095871727
631,0.0
668,62809441.30867245
2,1, 7,21, 0,19, 0.00,60.00,SummerDesignDay
357,24.000000000000019
397,24.00000000000001
437,24.00000000000001
477,24.000000000000005
517,24.000000000000019
2,1, 7,21, 0,20, 0.00,10.00,SummerDesignDay
8,16.097123145563505
10,47075852.16750361
631,0.0
668,52337859.94913727
2,1, 7,21, 0,20,10.00,20.00,SummerDesignDay
8,16.018070242471564
10,47075852.16750361
631,0.0
668,50690660.79903527
2,1, 7,21, 0,20,20.00,30.00,SummerDesignDay
8,15.938779752340516
10,47075852.16750361
631,0.0
668,48628608.82471596
2,1, 7,21, 0,20,30.00,40.00,SummerDesignDay
8,15.85926152575189
10,47075852.16750361
631,0.0
668,46639168.04394602
2,1, 7,21, 0,20,40.00,50.00,SummerDesignDay
8,15.779503718563929
10,47075852.16750361
631,0.0
668,44637774.71883812
2,1, 7,21, 0,20,50.00,60.00,SummerDesignDay
8,15.699515709672767
10,47075852.16750361
631,0.0
668,42664395.295724529
2,1, 7,21, 0,20, 0.00,60.00,SummerDesignDay
357,24.00000000000001
397,24.0
437,24.000000000000026
477,24.00000000000001
517,24.000000000000005
2,1, 7,21, 0,21, 0.00,10.00,SummerDesignDay
8,15.63389147320404
10,43620847.00005832
631,0.0
668,38801920.4886524
2,1, 7,21, 0,21,10.00,20.00,SummerDesignDay
8,15.56810827419793
10,43620847.00005832
631,0.0
668,36940542.2048842
2,1, 7,21, 0,21,20.00,30.00,SummerDesignDay
8,15.502170882753524
10,43620847.00005832
631,0.0
668,35249309.41949691
2,1, 7,21, 0,21,30.00,40.00,SummerDesignDay
8,15.436068032613852
10,43620847.00005832
631,0.0
668,33518494.039631457
2,1, 7,21, 0,21,40.00,50.00,SummerDesignDay
8,15.369804371206009
10,43620847.00005832
631,0.0
668,31813909.157286388
2,1, 7,21, 0,21,50.00,60.00,SummerDesignDay
8,15.303384603594449
10,43620847.00005832
631,0.0
668,30091097.45385576
2,1, 7,21, 0,21, 0.00,60.00,SummerDesignDay
357,24.000000000000019
397,24.000000000000005
437,24.0
477,24.000000000000005
517,24.0
2,1, 7,21, 0,22, 0.00,10.00,SummerDesignDay
8,15.236797685071274
10,26053214.86200594
631,0.0
668,18771388.79727476
2,1, 7,21, 0,22,10.00,20.00,SummerDesignDay
8,15.170047891787942
10,26053214.86200594
631,0.0
668,17994440.676935734
2,1, 7,21, 0,22,20.00,30.00,SummerDesignDay
8,15.103134826860483
10,26053214.86200594
631,0.0
668,17286137.24886386
2,1, 7,21, 0,22,30.00,40.00,SummerDesignDay
8,15.036063385178485
10,26053214.86200594
631,0.0
668,16562377.295210105
2,1, 7,21, 0,22,40.00,50.00,SummerDesignDay
8,14.968821767219835
10,26053214.86200594
631,0.0
668,15847584.396193203
2,1, 7,21, 0,22,50.00,60.00,SummerDesignDay
8,14.90141525878635
10,26053214.86200594
631,0.0
668,15143978.279870322
2,1, 7,21, 0,22, 0.00,60.00,SummerDesignDay
357,23.35554315422092
397,24.000000000000015
437,24.000000000000005
477,24.00000000000001
517,23.253784319002106
2,1, 7,21, 0,23, 0.00,10.00,SummerDesignDay
8,14.848873673278373
10,24455134.295956334
631,0.0
668,13464825.991764358
2,1, 7,21, 0,23,10.00,20.00,SummerDesignDay
8,14.796237168136719
10,24455134.295956334
631,0.0
668,12753057.87754295
2,1, 7,21, 0,23,20.00,30.00,SummerDesignDay
8,14.743494321455645
10,24455134.295956334
631,0.0
668,12183954.28021223
2,1, 7,21, 0,23,30.00,40.00,SummerDesignDay
8,14.690649975253665
10,24455134.295956334
631,0.0
668,11619327.464043156
2,1, 7,21, 0,23,40.00,50.00,SummerDesignDay
8,14.637704281233117
10,24455134.295956334
631,0.0
668,11073432.832121749
2,1, 7,21, 0,23,50.00,60.00,SummerDesignDay
8,14.584656914839757
10,24455134.295956334
631,0.0
668,10543909.723146217
2,1, 7,21, 0,23, 0.00,60.00,SummerDesignDay
357,22.42403734527088
397,24.00000000000001
437,24.000000000000005
477,24.000000000000005
517,22.320198691590745
2,1, 7,21, 0,24, 0.00,10.00,SummerDesignDay
8,14.531507212058875
10,18280391.07596184
631,0.0
668,6347917.183674254
2,1, 7,21, 0,24,10.00,20.00,SummerDesignDay
8,14.47825496413355
10,18280391.07596184
631,0.0
668,5829092.429219765
2,1, 7,21, 0,24,20.00,30.00,SummerDesignDay
8,14.4249000133173
10,18280391.07596184
631,0.0
668,5484497.095382994
2,1, 7,21, 0,24,30.00,40.00,SummerDesignDay
8,14.371447531304272
10,18280391.07596184
631,0.0
668,5097837.3374465019
2,1, 7,21, 0,24,40.00,50.00,SummerDesignDay
8,14.31788619902223
10,18280391.07596184
631,0.0
668,4720997.424123344
2,1, 7,21, 0,24,50.00,60.00,SummerDesignDay
8,14.264220970176066
10,18280391.07596184
631,0.0
668,4349902.157519357
2,1, 7,21, 0,24, 0.00,60.00,SummerDesignDay
357,21.791543603615243
397,24.0
437,24.00000000000001
477,23.880094072563
517,21.511293569006467
3,1, 7,21, 0,SummerDesignDay
358,49.26983716944765,43.30473419888678,11,10,58.464317663319487, 6,50
398,49.1073781840582,42.367222997371097,17,30,58.43561271595698, 6,50
438,48.84543092792307,43.2915509743383,17,60,57.90764922939838, 6,60
478,49.09161328891705,44.314118100864998,20,40,57.22875732832114, 5,60
518,48.003523622492988,40.630464205515149,14,60,60.744852925599207, 6,30
4,1, 7
7,22.2505,16.5,21, 5,60,28.9,21,14,60
1,FORT MCMURRAY AP ANN HTG 99.6% CONDNS DB,  56.65,-111.22,  -7.00, 369.10
2,1, 1,21, 0, 1, 0.00,10.00,WinterDesignDay
8,-36.2
10,11798036.103816947
631,340344597.2469291
668,0.0
2,1, 1,21, 0, 1,10.00,20.00,WinterDesignDay
8,-36.2
10,11798036.103816947
631,340864876.75179848
668,0.0
2,1, 1,21, 0, 1,20.00,30.00,WinterDesignDay
8,-36.2
10,11798036.103816947
631,341031141.60533419
668,0.0
2,1, 1,21, 0, 1,30.00,40.00,WinterDesignDay
8,-36.2
10,11798036.103816947
631,341203169.64706817
668,0.0
2,1, 1,21, 0, 1,40.00,50.00,WinterDesignDay
8,-36.2
10,11798036.103816947
631,341341590.60989919
668,0.0
2,1, 1,21, 0, 1,50.00,60.00,WinterDesignDay
8,-36.2
10,11798036.103816947
631,341449615.0599006
668,0.0
2,1, 1,21, 0, 1, 0.00,60.00,WinterDesignDay
357,18.00000000000001
397,22.000000000000005
437,22.000000000000005
477,22.0
517,18.00000000000001
2,1, 1,21, 0, 2, 0.00,10.00,WinterDesignDay
8,-36.2
10,7847851.042666156
631,274197917.7658774
668,0.0
2,1, 1,21, 0, 2,10.00,20.00,WinterDesignDay
8,-36.2
10,7847851.042666156
631,316480257.6463897
668,0.0
2,1, 1,21, 0, 2,20.00,30.00,WinterDesignDay
8,-36.2
10,7847851.042666156
631,351805348.5266088
668,0.0
2,1, 1,21, 0, 2,30.00,40.00,WinterDesignDay
8,-36.2
10,7847851.042666156
631,319253750.99715337
668,0.0
2,1, 1,21, 0, 2,40.00,50.00,WinterDesignDay
8,-36.2
10,7847851.042666156
631,328566655.91944459
668,0.0
2,1, 1,21, 0, 2,50.00,60.00,WinterDesignDay
8,-36.2
10,7847851.042666156
631,329839629.582974
668,0.0
2,1, 1,21, 0, 2, 0.00,60.00,WinterDesignDay
357,18.000000000000005
397,18.295250135747016
437,18.440269168173125
477,22.0
517,18.000000000000005
2,1, 1,21, 0, 3, 0.00,10.00,WinterDesignDay
8,-36.2
10,7847851.042666156
631,330378790.57333377
668,0.0
2,1, 1,21, 0, 3,10.00,20.00,WinterDesignDay
8,-36.2
10,7847851.042666156
631,330788098.38028028
668,0.0
2,1, 1,21, 0, 3,20.00,30.00,WinterDesignDay
8,-36.2
10,7847851.042666156
631,331111082.0172081
668,0.0
2,1, 1,21, 0, 3,30.00,40.00,WinterDesignDay
8,-36.2
10,7847851.042666156
631,331355209.21344688
668,0.0
2,1, 1,21, 0, 3,40.00,50.00,WinterDesignDay
8,-36.2
10,7847851.042666156
631,331539356.7818054
668,0.0
2,1, 1,21, 0, 3,50.00,60.00,WinterDesignDay
8,-36.2
10,7847851.042666156
631,331692831.0383911
668,0.0
2,1, 1,21, 0, 3, 0.00,60.00,WinterDesignDay
357,18.000000000000008
397,18.000000000000015
437,18.000000000000019
477,22.0
517,18.000000000000008
2,1, 1,21, 0, 4, 0.00,10.00,WinterDesignDay
8,-36.2
10,7847851.042666156
631,331806268.7085805
668,0.0
2,1, 1,21, 0, 4,10.00,20.00,WinterDesignDay
8,-36.2
10,7847851.042666156
631,331900987.64293697
668,0.0
2,1, 1,21, 0, 4,20.00,30.00,WinterDesignDay
8,-36.2
10,7847851.042666156
631,331980975.2210126
668,0.0
2,1, 1,21, 0, 4,30.00,40.00,WinterDesignDay
8,-36.2
10,7847851.042666156
631,332035607.40218976
668,0.0
2,1, 1,21, 0, 4,40.00,50.00,WinterDesignDay
8,-36.2
10,7847851.042666156
631,332081987.8479887
668,0.0
2,1, 1,21, 0, 4,50.00,60.00,WinterDesignDay
8,-36.2
10,7847851.042666156
631,332123534.02217337
668,0.0
2,1, 1,21, 0, 4, 0.00,60.00,WinterDesignDay
357,18.00000000000001
397,18.000000000000015
437,18.00000000000001
477,22.0
517,18.00000000000001
2,1, 1,21, 0, 5, 0.00,10.00,WinterDesignDay
8,-36.2
10,7847851.042666156
631,332158832.0970896
668,0.0
2,1, 1,21, 0, 5,10.00,20.00,WinterDesignDay
8,-36.2
10,7847851.042666156
631,332188282.85013118
668,0.0
2,1, 1,21, 0, 5,20.00,30.00,WinterDesignDay
8,-36.2
10,7847851.042666156
631,332212732.57756939
668,0.0
2,1, 1,21, 0, 5,30.00,40.00,WinterDesignDay
8,-36.2
10,7847851.042666156
631,332233040.62542477
668,0.0
2,1, 1,21, 0, 5,40.00,50.00,WinterDesignDay
8,-36.2
10,7847851.042666156
631,332249958.5398718
668,0.0
2,1, 1,21, 0, 5,50.00,60.00,WinterDesignDay
8,-36.2
10,7847851.042666156
631,332264110.8339833
668,0.0
2,1, 1,21, 0, 5, 0.00,60.00,WinterDesignDay
357,18.000000000000008
397,18.00000000000001
437,18.00000000000001
477,22.0
517,18.000000000000005
2,1, 1,21, 0, 6, 0.00,10.00,WinterDesignDay
8,-36.2
10,9254612.104329544
631,331353039.36132696
668,0.0
2,1, 1,21, 0, 6,10.00,20.00,WinterDesignDay
8,-36.2
10,9254612.104329544
631,331248139.6151153
668,0.0
2,1, 1,21, 0, 6,20.00,30.00,WinterDesignDay
8,-36.2
10,9254612.104329544
631,331244416.6343056
668,0.0
2,1, 1,21, 0, 6,30.00,40.00,WinterDesignDay
8,-36.2
10,9254612.104329544
631,331230940.53875467
668,0.0
2,1, 1,21, 0, 6,40.00,50.00,WinterDesignDay
8,-36.2
10,9254612.104329544
631,331218084.69275
668,0.0
2,1, 1,21, 0, 6,50.00,60.00,WinterDesignDay
8,-36.2
10,9254612.104329544
631,331207360.8840699
668,0.0
2,1, 1,21, 0, 6, 0.00,60.00,WinterDesignDay
357,18.000000000000005
397,18.000000000000008
437,18.000000000000019
477,22.0
517,18.000000000000005
2,1, 1,21, 0, 7, 0.00,10.00,WinterDesignDay
8,-36.2
10,12732125.448761439
631,367029604.99863788
668,0.0
2,1, 1,21, 0, 7,10.00,20.00,WinterDesignDay
8,-36.2
10,12732125.448761439
631,314548859.72197958
668,0.0
2,1, 1,21, 0, 7,20.00,30.00,WinterDesignDay
8,-36.2
10,12732125.448761439
631,346247205.83861389
668,0.0
2,1, 1,21, 0, 7,30.00,40.00,WinterDesignDay
8,-36.2
10,12732125.448761439
631,338892241.7716538
668,0.0
2,1, 1,21, 0, 7,40.00,50.00,WinterDesignDay
8,-36.2
10,12732125.448761439
631,338510749.3141265
668,0.0
2,1, 1,21, 0, 7,50.00,60.00,WinterDesignDay
8,-36.2
10,12732125.448761439
631,338260479.56864526
668,0.0
2,1, 1,21, 0, 7, 0.00,60.00,WinterDesignDay
357,18.000000000000008
397,18.000000000000015
437,18.00000000000001
477,22.000000000000005
517,19.996717059125154
2,1, 1,21, 0, 8, 0.00,10.00,WinterDesignDay
8,-36.2
10,30262243.958502786
631,443761483.3112068
668,0.0
2,1, 1,21, 0, 8,10.00,20.00,WinterDesignDay
8,-36.2
10,30262243.958502786
631,262190248.3809168
668,0.0
2,1, 1,21, 0, 8,20.00,30.00,WinterDesignDay
8,-36.2
10,30262243.958502786
631,375224145.17764458
668,0.0
2,1, 1,21, 0, 8,30.00,40.00,WinterDesignDay
8,-36.2
10,30262243.958502786
631,350825389.55175647
668,0.0
2,1, 1,21, 0, 8,40.00,50.00,WinterDesignDay
8,-36.2
10,30262243.958502786
631,348322734.7347531
668,0.0
2,1, 1,21, 0, 8,50.00,60.00,WinterDesignDay
8,-36.2
10,30262243.958502786
631,347932890.2206411
668,0.0
2,1, 1,21, 0, 8, 0.00,60.00,WinterDesignDay
357,20.007787671577956
397,20.02486182288313
437,20.079084513315249
477,22.0
517,21.997023973485609
2,1, 1,21, 0, 9, 0.00,10.00,WinterDesignDay
8,-36.2
10,60449460.660383548
631,404669134.04156586
668,0.0
2,1, 1,21, 0, 9,10.00,20.00,WinterDesignDay
8,-36.2
10,60449460.660383548
631,270808379.4065659
668,0.0
2,1, 1,21, 0, 9,20.00,30.00,WinterDesignDay
8,-36.2
10,60449460.660383548
631,357490959.9682746
668,0.0
2,1, 1,21, 0, 9,30.00,40.00,WinterDesignDay
8,-36.2
10,60449460.660383548
631,333556888.92196878
668,0.0
2,1, 1,21, 0, 9,40.00,50.00,WinterDesignDay
8,-36.2
10,60449460.660383548
631,333450184.6172118
668,0.0
2,1, 1,21, 0, 9,50.00,60.00,WinterDesignDay
8,-36.2
10,60449460.660383548
631,332475776.9678228
668,0.0
2,1, 1,21, 0, 9, 0.00,60.00,WinterDesignDay
357,22.00847566047912
397,22.02097249349704
437,22.03660060351254
477,22.000000000000005
517,22.000000000000019
2,1, 1,21, 0,10, 0.00,10.00,WinterDesignDay
8,-36.2
10,64170812.5888371
631,327631746.6766253
668,0.0
2,1, 1,21, 0,10,10.00,20.00,WinterDesignDay
8,-36.2
10,64170812.5888371
631,326367158.5349816
668,0.0
2,1, 1,21, 0,10,20.00,30.00,WinterDesignDay
8,-36.2
10,64170812.5888371
631,325898367.3992373
668,0.0
2,1, 1,21, 0,10,30.00,40.00,WinterDesignDay
8,-36.2
10,64170812.5888371
631,325424519.1131141
668,0.0
2,1, 1,21, 0,10,40.00,50.00,WinterDesignDay
8,-36.2
10,64170812.5888371
631,325067992.40569469
668,0.0
2,1, 1,21, 0,10,50.00,60.00,WinterDesignDay