Program Version,EnergyPlus, Version 8.9.0-eba93e8e1b, YMD=2019.03.28 13:17
1,5,Environment Title[],Latitude[deg],Longitude[deg],Time Zone[],Elevation[m]
2,8,Day of Simulation[],Month[],Day of Month[],DST Indicator[1=yes 0=no],Hour[],StartMinute[],EndMinute[],DayType
3,5,Cumulative Day of Simulation[],Month[],Day of Month[],DST Indicator[1=yes 0=no],DayType  ! When Daily Report Variables Requested
4,2,Cumulative Days of Simulation[],Month[]  ! When Monthly Report Variables Requested
5,1,Cumulative Days of Simulation[] ! When Run Period Report Variables Requested
6,1,Calendar Year of Simulation[] ! When Annual Report Variables Requested
7,9,Environment,Site Outdoor Air Drybulb Temperature [C] !Monthly [Value,Min,Day,Hour,Minute,Max,Day,Hour,Minute]
8,1,Environment,Site Outdoor Air Wetbulb Temperature [C] !TimeStep
888,1,RELIGIOUS - FELLOWSHIP HALL-SPACE FUNCTION ZN,Zone Air Temperature [C] !Hourly
889,7,RELIGIOUS - FELLOWSHIP HALL-SPACE FUNCTION ZN,Zone Air Relative Humidity [%] !Daily [Value,Min,Hour,Minute,Max,Hour,Minute]
928,1,RELIGIOUS - PULPIT/CHOIR-SPACE FUNCTION ZN,Zone Air Temperature [C] !Hourly
929,7,RELIGIOUS - PULPIT/CHOIR-SPACE FUNCTION ZN,Zone Air Relative Humidity [%] !Daily [Value,Min,Hour,Minute,Max,Hour,Minute]
968,1,RETAIL - DRESSING/FITTING-SPACE FUNCTION ZN,Zone Air Temperature [C] !Hourly
969,7,RETAIL - DRESSING/FITTING-SPACE FUNCTION ZN,Zone Air Relative Humidity [%] !Daily [Value,Min,Hour,Minute,Max,Hour,Minute]
1008,1,RETAIL - MALL CONCOURSE-SPACE FUNCTION ZN,Zone Air Temperature [C] !Hourly
1009,7,RETAIL - MALL CONCOURSE-SPACE FUNCTION ZN,Zone Air Relative Humidity [%] !Daily [Value,Min,Hour,Minute,Max,Hour,Minute]
1048,1,RETAIL - SALES-SPACE FUNCTION ZN,Zone Air Temperature [C] !Hourly
1049,7,RETAIL - SALES-SPACE FUNCTION ZN,Zone Air Relative Humidity [%] !Daily [Value,Min,Hour,Minute,Max,Hour,Minute]
1088,1,SALES AREA-SPACE FUNCTION ZN,Zone Air Temperature [C] !Hourly
1089,7,SALES AREA-SPACE FUNCTION ZN,Zone Air Relative Humidity [%] !Daily [Value,Min,Hour,Minute,Max,Hour,Minute]
1128,1,SPORTS ARENA - AUDIENCE-SPACE FUNCTION ZN,Zone Air Temperature [C] !Hourly
1129,7,SPORTS ARENA - AUDIENCE-SPACE FUNCTION ZN,Zone Air Relative Humidity [%] !Daily [Value,Min,Hour,Minute,Max,Hour,Minute]
1168,1,SPORTS ARENA - COURT C1-SPACE FUNCTION ZN,Zone Air Temperature [C] !Hourly
1169,7,SPORTS ARENA - COURT C1-SPACE FUNCTION ZN,Zone Air Relative Humidity [%] !Daily [Value,Min,Hour,Minute,Max,Hour,Minute]
1208,1,SPORTS ARENA - COURT C2-SPACE FUNCTION ZN,Zone Air Temperature [C] !Hourly
1209,7,SPORTS ARENA - COURT C2-SPACE FUNCTION ZN,Zone Air Relative Humidity [%] !Daily [Value,Min,Hour,Minute,Max,Hour,Minute]
1248,1,SPORTS ARENA - COURT C3-SPACE FUNCTION ZN,Zone Air Temperature [C] !Hourly
1249,7,SPORTS ARENA - COURT C3-SPACE FUNCTION ZN,Zone Air Relative Humidity [%] !Daily [Value,Min,Hour,Minute,Max,Hour,Minute]
1288,1,SPORTS ARENA - COURT C4-SPACE FUNCTION ZN,Zone Air Temperature [C] !Hourly
1289,7,SPORTS ARENA - COURT C4-SPACE FUNCTION ZN,Zone Air Relative Humidity [%] !Daily [Value,Min,Hour,Minute,Max,Hour,Minute]
1328,1,SPORTS ARENA - RING-SPACE FUNCTION ZN,Zone Air Temperature [C] !Hourly
1329,7,SPORTS ARENA - RING-SPACE FUNCTION ZN,Zone Air Relative Humidity [%] !Daily [Value,Min,Hour,Minute,Max,Hour,Minute]
1368,1,STORAGE AREA - OCCSENS-SPACE FUNCTION ZN,Zone Air Temperature [C] !Hourly
1369,7,STORAGE AREA - OCCSENS-SPACE FUNCTION ZN,Zone Air Relative Humidity [%] !Daily [Value,Min,Hour,Minute,Max,Hour,Minute]
1408,1,STORAGE AREA - REFRIGERATED - OCCSENS-SPACE FUNCTION ZN,Zone Air Temperature [C] !Hourly
1409,7,STORAGE AREA - REFRIGERATED - OCCSENS-SPACE FUNCTION ZN,Zone Air Relative Humidity [%] !Daily [Value,Min,Hour,Minute,Max,Hour,Minute]
1448,1,STORAGE AREA - REFRIGERATED-SPACE FUNCTION ZN,Zone Air Temperature [C] !Hourly
1449,7,STORAGE AREA - REFRIGERATED-SPACE FUNCTION ZN,Zone Air Relative Humidity [%] !Daily [Value,Min,Hour,Minute,Max,Hour,Minute]
1488,1,STORAGE AREA-SPACE FUNCTION ZN,Zone Air Temperature [C] !Hourly
1489,7,STORAGE AREA-SPACE FUNCTION ZN,Zone Air Relative Humidity [%] !Daily [Value,Min,Hour,Minute,Max,Hour,Minute]
1528,1,TRANSP. BAGGAGE-SPACE FUNCTION ZN,Zone Air Temperature [C] !Hourly
1529,7,TRANSP. BAGGAGE-SPACE FUNCTION ZN,Zone Air Relative Humidity [%] !Daily [Value,Min,Hour,Minute,Max,Hour,Minute]
1568,1,TRANSP. CONCOURSE-SPACE FUNCTION ZN,Zone Air Temperature [C] !Hourly
1569,7,TRANSP. CONCOURSE-SPACE FUNCTION ZN,Zone Air Relative Humidity [%] !Daily [Value,Min,Hour,Minute,Max,Hour,Minute]
1608,1,TRANSP. COUNTER-SPACE FUNCTION ZN,Zone Air Temperature [C] !Hourly
1609,7,TRANSP. COUNTER-SPACE FUNCTION ZN,Zone Air Relative Humidity [%] !Daily [Value,Min,Hour,Minute,Max,Hour,Minute]
1648,1,TRANSP. SEATING-SPACE FUNCTION ZN,Zone Air Temperature [C] !Hourly
1649,7,TRANSP. SEATING-SPACE FUNCTION ZN,Zone Air Relative Humidity [%] !Daily [Value,Min,Hour,Minute,Max,Hour,Minute]
10,1,Electricity:Facility [J] !TimeStep
1799,1,DistrictCooling:Facility [J] !TimeStep
1762,1,DistrictHeating:Facility [J] !TimeStep
End of Data Dictionary
1,FORT MCMURRAY AP ANN CLG .4% CONDNS DB=>MWB,  56.65,-111.22,  -7.00, 369.10
2,1, 7,21, 0, 1, 0.00,10.00,SummerDesignDay
8,14.218136923962174
10,173781428.68237949
1762,12587753.996778842
1799,119172457.5712331
2,1, 7,21, 0, 1,10.00,20.00,SummerDesignDay
8,14.171982153293495
10,173781428.68237949
1762,15124589.91428299
1799,116245187.21981067
2,1, 7,21, 0, 1,20.00,30.00,SummerDesignDay
8,14.125744780286427
10,173781428.68237949
1762,17559964.65709826
1799,113445862.65821642
2,1, 7,21, 0, 1,30.00,40.00,SummerDesignDay
8,14.079436086331978
10,173781428.68237949
1762,19909490.9569406
1799,110699644.56207188
2,1, 7,21, 0, 1,40.00,50.00,SummerDesignDay
8,14.033050387896898
10,173781428.68237949
1762,22247883.44420218
1799,108007845.85121031
2,1, 7,21, 0, 1,50.00,60.00,SummerDesignDay
8,13.986581233564835
10,173781428.68237949
1762,24571298.146084235
1799,105331582.24537796
2,1, 7,21, 0, 1, 0.00,60.00,SummerDesignDay
888,20.775663214880127
928,22.394634507183104
968,23.660676578898565
1008,23.57029738755546
1048,24.64970304050591
1088,23.438488962231977
1128,22.000010550707406
1168,24.00000000000004
1208,24.00000000000004
1248,24.0
1288,24.00000000000004
1328,24.000000000000019
1368,24.394172220105859
1408,24.608369792306836
1448,23.991929147873355
1488,23.297522280280707
1528,24.00000000000003
1568,22.000128647462004
1608,24.000000000000015
1648,22.25883049953984
2,1, 7,21, 0, 2, 0.00,10.00,SummerDesignDay
8,13.95555882260429
10,112263190.68069512
1762,23217237.51454249
1799,30091962.08135214
2,1, 7,21, 0, 2,10.00,20.00,SummerDesignDay
8,13.924507755336454
10,112263190.68069512
1762,24393914.929993094
1799,29727358.683514663
2,1, 7,21, 0, 2,20.00,30.00,SummerDesignDay
8,13.893416042989206
10,112263190.68069512
1762,25459251.21037849
1799,29359605.296320954
2,1, 7,21, 0, 2,30.00,40.00,SummerDesignDay
8,13.862289589689029
10,112263190.68069512
1762,26512152.374903107
1799,28999154.760653747
2,1, 7,21, 0, 2,40.00,50.00,SummerDesignDay
8,13.831134407608739
10,112263190.68069512
1762,27554780.67955086
1799,28596017.05437442
2,1, 7,21, 0, 2,50.00,60.00,SummerDesignDay
8,13.799938415548118
10,112263190.68069512
1762,28592227.167110396
1799,28189303.409451285
2,1, 7,21, 0, 2, 0.00,60.00,SummerDesignDay
888,20.247755210121036
928,20.869597083107175
968,23.312280467330497
1008,23.237423612029884
1048,24.333703149166195
1088,23.171565027982529
1128,22.000000000113503
1168,25.052810743420918
1208,24.32865263696918
1248,23.50288717532729
1288,23.958580026137388
1328,24.855203950448855
1368,24.275589256439046
1408,24.49655978038159
1448,23.850102451969066
1488,22.926438733321637
1528,24.000000000000005
1568,21.207871596424213
1608,24.000000000000026
1648,21.8791509215532
2,1, 7,21, 0, 3, 0.00,10.00,SummerDesignDay
8,13.776521671948676
10,59958625.99745123
1762,0.0
1799,27858408.45521209
2,1, 7,21, 0, 3,10.00,20.00,SummerDesignDay
8,13.753085235778466
10,59958625.99745123
1762,0.0
1799,27502575.76683086
2,1, 7,21, 0, 3,20.00,30.00,SummerDesignDay
8,13.729636002354969
10,59958625.99745123
1762,0.0
1799,27127037.104338856
2,1, 7,21, 0, 3,30.00,40.00,SummerDesignDay
8,13.706147375533054
10,59958625.99745123
1762,0.0
1799,26741047.694942759
2,1, 7,21, 0, 3,40.00,50.00,SummerDesignDay
8,13.682651961920304
10,59958625.99745123
1762,0.0
1799,26354286.960572438
2,1, 7,21, 0, 3,50.00,60.00,SummerDesignDay
8,13.659136670643687
10,59958625.99745123
1762,0.0
1799,25968865.065190086
2,1, 7,21, 0, 3, 0.00,60.00,SummerDesignDay
888,19.838643072741289
928,20.167767948451574
968,23.01585271400037
1008,22.933726695690969
1048,24.05847068028317
1088,22.958445632422636
1128,20.291115377362727
1168,24.271778491524274
1208,23.5914957106357
1248,22.35452364808036
1288,23.418262220433065
1328,24.147258007929556
1368,24.180415724321717
1408,24.40049500598671
1448,23.733175164036493
1488,22.586489910352353
1528,24.000000000000015
1568,20.698111561878347
1608,24.000000000000019
1648,21.5959889650435
2,1, 7,21, 0, 4, 0.00,10.00,SummerDesignDay
8,13.63560137410855
10,59958625.99745123
1762,0.0
1799,25583187.781502658
2,1, 7,21, 0, 4,10.00,20.00,SummerDesignDay
8,13.612040802606578
10,59958625.99745123
1762,0.0
1799,25196040.617625864
2,1, 7,21, 0, 4,20.00,30.00,SummerDesignDay
8,13.58846620506876
10,59958625.99745123
1762,0.0
1799,24807882.130108395
2,1, 7,21, 0, 4,30.00,40.00,SummerDesignDay
8,13.56487178447336
10,59958625.99745123
1762,0.0
1799,24419243.012251438
2,1, 7,21, 0, 4,40.00,50.00,SummerDesignDay
8,13.541257354069103
10,59958625.99745123
1762,0.0
1799,24030520.211048888
2,1, 7,21, 0, 4,50.00,60.00,SummerDesignDay
8,13.517617463812285
10,59958625.99745123
1762,0.0
1799,23641709.876846915
2,1, 7,21, 0, 4, 0.00,60.00,SummerDesignDay
888,19.449565829870669
928,19.725850526202554
968,22.690515039944147
1008,22.585202792336245
1048,23.73445331683156
1088,22.731018970724848
1128,19.684382906944906
1168,23.601513063977906
1208,23.03925654737669
1248,21.535900671790676
1288,23.013615160424309
1328,23.568955729214776
1368,24.076044164063068
1408,24.27584039044557
1448,23.60485427768756
1488,22.202660027049434
1528,24.00000000000001
1568,20.308699506643995
1608,24.000000000000026
1648,21.32597897210469
2,1, 7,21, 0, 5, 0.00,10.00,SummerDesignDay
8,13.50185415824011
10,59958625.99745123
1762,0.0
1799,23334955.37018872
2,1, 7,21, 0, 5,10.00,20.00,SummerDesignDay
8,13.486076034032447
10,59958625.99745123
1762,0.0
1799,23540206.646942595
2,1, 7,21, 0, 5,20.00,30.00,SummerDesignDay
8,13.470289340350983
10,59958625.99745123
1762,0.0
1799,23765589.83260162
2,1, 7,21, 0, 5,30.00,40.00,SummerDesignDay
8,13.454493322631063
10,59958625.99745123
1762,0.0
1799,24136676.5435538
2,1, 7,21, 0, 5,40.00,50.00,SummerDesignDay
8,13.438688835118548
10,59958625.99745123
1762,0.0
1799,24597235.427887177
2,1, 7,21, 0, 5,50.00,60.00,SummerDesignDay
8,13.422888173889437
10,59958625.99745123
1762,0.0
1799,25073095.71286019
2,1, 7,21, 0, 5, 0.00,60.00,SummerDesignDay
888,19.175004921418674
928,19.529642978470858
968,22.41295936740366
1008,22.330939937594903
1048,23.436972038995437
1088,22.530321787035218
1128,19.393059770523647
1168,23.379518045411016
1208,22.778221915820326
1248,21.189245072096825
1288,22.77244654487392
1328,23.352196894353498
1368,23.98807641913953
1408,24.156382445924299
1448,23.487977177309359
1488,21.912922699429847
1528,24.00000000000003
1568,20.181205569999336
1608,24.00000000000003
1648,21.101072397562015
2,1, 7,21, 0, 6, 0.00,10.00,SummerDesignDay
8,13.438688835118548
10,59958625.99745123
1762,0.0
1799,25845491.751053886
2,1, 7,21, 0, 6,10.00,20.00,SummerDesignDay
8,13.454493322631063
10,59958625.99745123
1762,0.0
1799,26622468.822190107
2,1, 7,21, 0, 6,20.00,30.00,SummerDesignDay
8,13.470289340350983
10,59958625.99745123
1762,0.0
1799,27389786.93608121
2,1, 7,21, 0, 6,30.00,40.00,SummerDesignDay
8,13.486076034032447
10,59958625.99745123
1762,0.0
1799,28138645.857261599
2,1, 7,21, 0, 6,40.00,50.00,SummerDesignDay
8,13.50185415824011
10,59958625.99745123
1762,0.0
1799,28714036.85846308
2,1, 7,21, 0, 6,50.00,60.00,SummerDesignDay
8,13.517617463812285
10,59958625.99745123
1762,0.0
1799,29247947.917203838
2,1, 7,21, 0, 6, 0.00,60.00,SummerDesignDay
888,19.217035692762314
928,19.703199103123674
968,22.23691523050984
1008,22.229667699753237
1048,23.232104563557557
1088,22.40288001936862
1128,19.29558466359173
1168,23.606843606872933
1208,22.62263618013547
1248,21.204750261073206
1288,22.637137828581044
1328,23.27980462739453
1368,23.94276021241979
1408,24.07118877030614
1448,23.39898240855724
1488,21.90762122665384
1528,24.0
1568,20.776814843280758
1608,24.00000000000001
1648,21.036998902669834
2,1, 7,21, 0, 7, 0.00,10.00,SummerDesignDay
8,13.572736920571789
10,59958625.99745123
1762,0.0
1799,30115577.18576816
2,1, 7,21, 0, 7,10.00,20.00,SummerDesignDay
8,13.627748229152554
10,59958625.99745123
1762,0.0
1799,30954108.102722419
2,1, 7,21, 0, 7,20.00,30.00,SummerDesignDay
8,13.682651961920304
10,59958625.99745123
1762,0.0
1799,31770515.576378984
2,1, 7,21, 0, 7,30.00,40.00,SummerDesignDay
8,13.737448093244995
10,59958625.99745123
1762,0.0
1799,32563092.809582838
2,1, 7,21, 0, 7,40.00,50.00,SummerDesignDay
8,13.792137011831216
10,59958625.99745123
1762,0.0
1799,33330791.949046516
2,1, 7,21, 0, 7,50.00,60.00,SummerDesignDay
8,13.846719282840333
10,59958625.99745123
1762,0.0
1799,34072940.78545916
2,1, 7,21, 0, 7, 0.00,60.00,SummerDesignDay
888,19.704013063067167
928,20.07807957533316
968,22.23419531870138
1008,22.21140606239186
1048,23.19251963417304
1088,22.427784132430845
1128,19.551931498795726
1168,24.04729063674577
1208,22.651927285362189
1248,21.616319916831619
1288,22.674974015995394
1328,23.246298828901513
1368,23.988615513256275
1408,24.05126525746392
1448,23.374738171715749
1488,22.24150205442385
1528,24.000000000000026
1568,21.741226642489509
1608,24.000000000000005
1648,21.261117173316206
2,1, 7,21, 0, 8, 0.00,10.00,SummerDesignDay
8,13.978831900527043
10,59958625.99745123
1762,0.0
1799,39619572.16868067
2,1, 7,21, 0, 8,10.00,20.00,SummerDesignDay
8,14.110321014287419
10,59958625.99745123
1762,0.0
1799,37379787.068257469
2,1, 7,21, 0, 8,20.00,30.00,SummerDesignDay
8,14.241191509616986
10,59958625.99745123
1762,0.0
1799,41028876.29564111
2,1, 7,21, 0, 8,30.00,40.00,SummerDesignDay
8,14.371447531304272
10,59958625.99745123
1762,0.0
1799,42677541.75521186
2,1, 7,21, 0, 8,40.00,50.00,SummerDesignDay
8,14.501093766564925
10,59958625.99745123
1762,0.0
1799,44381564.99763202
2,1, 7,21, 0, 8,50.00,60.00,SummerDesignDay
8,14.630134792273804
10,59958625.99745123
1762,0.0
1799,49459830.3377625
2,1, 7,21, 0, 8, 0.00,60.00,SummerDesignDay
888,20.905383193102194
928,21.188845511245387
968,22.506573713913359
1008,22.54922026300868
1048,23.420139108682446
1088,22.698714403968919
1128,20.39287691492216
1168,24.682441612986428
1208,22.966292321766479
1248,22.649588983602674
1288,22.991908270160708
1328,23.517402154214577
1368,24.000146677953344
1408,24.000142920479374
1448,23.457995537280508
1488,23.105403052962257
1528,24.000000000000026
1568,23.20914256987739
1608,24.000000000000019
1648,21.95991500844531
2,1, 7,21, 0, 9, 0.00,10.00,SummerDesignDay
8,14.773641492809972
10,110551329.93252965
1762,3414508.375824927
1799,87450568.70723546
2,1, 7,21, 0, 9,10.00,20.00,SummerDesignDay
8,14.91640948124148
10,110551329.93252965
1762,0.0
1799,93366438.54784385
2,1, 7,21, 0, 9,20.00,30.00,SummerDesignDay
8,15.05843890714102
10,110551329.93252965
1762,0.0
1799,117610007.67774992
2,1, 7,21, 0, 9,30.00,40.00,SummerDesignDay
8,15.199735893563798
10,110551329.93252965
1762,0.0
1799,136147837.531588
2,1, 7,21, 0, 9,40.00,50.00,SummerDesignDay
8,15.340306256439395
10,110551329.93252965
1762,0.0
1799,153720347.94275029
2,1, 7,21, 0, 9,50.00,60.00,SummerDesignDay
8,15.48015101768072
10,110551329.93252965
1762,0.0
1799,179406975.20921398
2,1, 7,21, 0, 9, 0.00,60.00,SummerDesignDay
888,23.23821487305176
928,23.048546493719685
968,23.451000047413897
1008,23.588127387158598
1048,23.975023023710269
1088,23.744756937551704
1128,21.790710143271729
1168,23.98017967498519
1208,23.596672902296775
1248,23.872962392514937
1288,23.617653837575657
1328,23.948318481283253
1368,24.000000000000005
1408,24.00000000000001
1448,23.867717597972548
1488,23.98304405237715
1528,24.000000000000015
1568,23.999917990169448
1608,24.0
1648,23.136609146325698
2,1, 7,21, 0,10, 0.00,10.00,SummerDesignDay
8,15.60467292907716
10,207392023.9574776
1762,0.0
1799,269223121.05372527
2,1, 7,21, 0,10,10.00,20.00,SummerDesignDay
8,15.72862731650033
10,207392023.9574776
1762,0.0
1799,298721988.5208442
2,1, 7,21, 0,10,20.00,30.00,SummerDesignDay
8,15.852017409284228
10,207392023.9574776
1762,0.0
1799,323145707.5050283
2,1, 7,21, 0,10,30.00,40.00,SummerDesignDay
8,15.974848118364367
10,207392023.9574776
1762,0.0
1799,346939431.2490915
2,1, 7,21, 0,10,40.00,50.00,SummerDesignDay
8,16.097123145563505
10,207392023.9574776
1762,0.0
1799,370802881.15037146
2,1, 7,21, 0,10,50.00,60.00,SummerDesignDay
8,16.218846351168599
10,207392023.9574776
1762,0.0
1799,399418434.3732693
2,1, 7,21, 0,10, 0.00,60.00,SummerDesignDay
888,23.9999407612796
928,25.123231608321345
968,23.999835100241559
1008,23.99999109849413
1048,23.999999999978696
1088,23.99999999201226
1128,23.500866207047495
1168,23.999999999986888
1208,23.999721517652266
1248,23.999999999020507
1288,23.999812705955806
1328,23.99999999953087
1368,24.000000000000005
1408,24.000000000000005
1448,23.999999999280477
1488,23.99999999999996
1528,24.000000000000005
1568,23.999999999985226
1608,24.00000000000001
1648,23.991267051693176
2,1, 7,21, 0,11, 0.00,10.00,SummerDesignDay
8,16.325793027093189
10,241377241.10968269
1762,0.0
1799,454325268.6656444
2,1, 7,21, 0,11,10.00,20.00,SummerDesignDay
8,16.432322158488288
10,241377241.10968269
1762,0.0
1799,478200186.18232187
2,1, 7,21, 0,11,20.00,30.00,SummerDesignDay
8,16.538424180249178
10,241377241.10968269
1762,0.0
1799,500536461.81195959
2,1, 7,21, 0,11,30.00,40.00,SummerDesignDay
8,16.644108396469087
10,241377241.10968269
1762,0.0
1799,521890313.3466255
2,1, 7,21, 0,11,40.00,50.00,SummerDesignDay
8,16.749376736593655
10,241377241.10968269
1762,0.0
1799,542986823.2791022
2,1, 7,21, 0,11,50.00,60.00,SummerDesignDay
8,16.854232613237156
10,241377241.10968269
1762,0.0
1799,563941924.8611767
2,1, 7,21, 0,11, 0.00,60.00,SummerDesignDay
888,23.999999999996594
928,26.911980127888439
968,23.999999999999984
1008,23.99999999999999
1048,24.000000000000005
1088,24.000000000000026
1128,23.999820557437613
1168,24.000000000000026
1208,23.999999999999817
1248,24.000000000000047
1288,23.999999999999873
1328,24.000000000000019
1368,24.00000000000001
1408,24.000000000000005
1448,24.000000000000015
1488,24.0
1528,24.000000000000015
1568,24.000000000000104
1608,24.00000000000001
1648,23.999999997739619
2,1, 7,21, 0,12, 0.00,10.00,SummerDesignDay
8,16.92390823520069
10,267529523.45130465
1762,0.0
1799,616084741.1230702
2,1, 7,21, 0,12,10.00,20.00,SummerDesignDay
8,16.99340178950456
10,267529523.45130465
1762,0.0
1799,633524791.0981722
2,1, 7,21, 0,12,20.00,30.00,SummerDesignDay
8,17.06272006743463
10,267529523.45130465
1762,0.0
1799,649855084.3232486
2,1, 7,21, 0,12,30.00,40.00,SummerDesignDay
8,17.131853229172639
10,267529523.45130465
1762,0.0
1799,666032369.0450564
2,1, 7,21, 0,12,40.00,50.00,SummerDesignDay
8,17.200807172194087
10,267529523.45130465
1762,0.0
1799,681909299.4971624
2,1, 7,21, 0,12,50.00,60.00,SummerDesignDay
8,17.269582116758607
10,267529523.45130465
1762,0.0
1799,697468388.1696177
2,1, 7,21, 0,12, 0.00,60.00,SummerDesignDay
888,24.00000000000006
928,28.324069237535558
968,24.000000000000026
1008,24.00000000000003
1048,24.000000000000026
1088,24.000000000000015
1128,23.99999992985651
1168,24.000000000000019
1208,23.99999999999999
1248,24.0
1288,24.00000000000004
1328,24.000000000000019
1368,23.999999999999998
1408,24.000000000000015
1448,24.000000000000005
1488,24.000000000000026
1528,24.00000000000001
1568,24.0
1608,24.0
1648,23.999999999999944
2,1, 7,21, 0,13, 0.00,10.00,SummerDesignDay
8,17.32447360221357
10,267529523.45130465
1762,0.0
1799,750758002.3234586
2,1, 7,21, 0,13,10.00,20.00,SummerDesignDay
8,17.379251291230806
10,267529523.45130465
1762,0.0
1799,765221578.3081774
2,1, 7,21, 0,13,20.00,30.00,SummerDesignDay
8,17.433921312061729
10,267529523.45130465
1762,0.0
1799,778971269.1080716
2,1, 7,21, 0,13,30.00,40.00,SummerDesignDay
8,17.488473222557489
10,267529523.45130465
1762,0.0
1799,792318178.4310442
2,1, 7,21, 0,13,40.00,50.00,SummerDesignDay
8,17.542913447755134
10,267529523.45130465
1762,0.0
1799,804965361.7059566
2,1, 7,21, 0,13,50.00,60.00,SummerDesignDay
8,17.59724609886134
10,267529523.45130465
1762,0.0
1799,816877518.3763476
2,1, 7,21, 0,13, 0.00,60.00,SummerDesignDay
888,24.000000000000005
928,29.329676255504585
968,24.00000000000001
1008,23.99999999999997
1048,24.000000000000047
1088,24.000000000000019
1128,23.999999999939729
1168,24.00000000000007
1208,24.000000000000044
1248,24.00000000000003
1288,24.000000000000026
1328,24.00000000000004
1368,24.00000000000001
1408,24.00000000000001
1448,24.000000000000015
1488,24.00000000000003
1528,24.00000000000001
1568,23.999999999999987
1608,24.000000000000005
1648,24.0
2,1, 7,21, 0,14, 0.00,10.00,SummerDesignDay
8,17.6311450462694
10,267529523.45130465
1762,0.0
1799,815354150.3063516
2,1, 7,21, 0,14,10.00,20.00,SummerDesignDay
8,17.665000449016245
10,267529523.45130465
1762,0.0
1799,822153002.2494139
2,1, 7,21, 0,14,20.00,30.00,SummerDesignDay
8,17.698812743128934
10,267529523.45130465
1762,0.0
1799,828918054.8510634
2,1, 7,21, 0,14,30.00,40.00,SummerDesignDay
8,17.732582050940107
10,267529523.45130465
1762,0.0
1799,835761330.532125
2,1, 7,21, 0,14,40.00,50.00,SummerDesignDay
8,17.766307345121004
10,267529523.45130465
1762,0.0
1799,842733825.2415959
2,1, 7,21, 0,14,50.00,60.00,SummerDesignDay
8,17.79999023167558
10,267529523.45130465
1762,0.0
1799,849807999.769292
2,1, 7,21, 0,14, 0.00,60.00,SummerDesignDay
888,24.000000000000026
928,30.00889861082535
968,24.00000000000001
1008,24.000000000000005
1048,24.000000000000055
1088,24.00000000000003
1128,23.999999999999969
1168,23.99999999999997
1208,23.999999999999987
1248,24.000000000000055
1288,24.000000000000015
1328,24.000000000000026
1368,24.00000000000001
1408,24.00000000000001
1448,24.000000000000005
1488,24.000000000000047
1528,24.000000000000033
1568,23.999999999999877
1608,24.00000000000003
1648,24.000000000000033
2,1, 7,21, 0,15, 0.00,10.00,SummerDesignDay
8,17.79999023167558
10,267529523.45130465
1762,0.0
1799,969801943.1903685
2,1, 7,21, 0,15,10.00,20.00,SummerDesignDay
8,17.79999023167558
10,267529523.45130465
1762,0.0
1799,823220431.5645322
2,1, 7,21, 0,15,20.00,30.00,SummerDesignDay
8,17.79999023167558
10,267529523.45130465
1762,0.0
1799,900274283.3509739
2,1, 7,21, 0,15,30.00,40.00,SummerDesignDay
8,17.79999023167558
10,267529523.45130465
1762,0.0
1799,887461309.8527707
2,1, 7,21, 0,15,40.00,50.00,SummerDesignDay
8,17.79999023167558
10,267529523.45130465
1762,0.0
1799,884987902.5789741
2,1, 7,21, 0,15,50.00,60.00,SummerDesignDay
8,17.79999023167558
10,267529523.45130465
1762,0.0
1799,884818843.807612
2,1, 7,21, 0,15, 0.00,60.00,SummerDesignDay
888,24.00000000000003
928,23.938453900371085
968,24.00000000000001
1008,24.0
1048,24.000000000000019
1088,24.000000000000019
1128,23.999999999999998
1168,24.000000000000044
1208,23.99999999999996
1248,23.999999999999984
1288,24.00000000000003
1328,23.99999999999996
1368,24.00000000000001
1408,24.00000000000001
1448,24.0
1488,23.99999999999999
1528,24.000000000000026
1568,24.000000000000058
1608,24.00000000000003
1648,24.00000000000001
2,1, 7,21, 0,16, 0.00,10.00,SummerDesignDay
8,17.759562446305357
10,276855695.8336885
1762,0.0
1799,858944903.3559963
2,1, 7,21, 0,16,10.00,20.00,SummerDesignDay
8,17.71907809634183
10,276855695.8336885
1762,0.0
1799,850781004.9190701
2,1, 7,21, 0,16,20.00,30.00,SummerDesignDay
8,17.67853788661001
10,276855695.8336885
1762,0.0
1799,841782549.742978
2,1, 7,21, 0,16,30.00,40.00,SummerDesignDay
8,17.63791796367351
10,276855695.8336885
1762,0.0
1799,832643319.4833592
2,1, 7,21, 0,16,40.00,50.00,SummerDesignDay
8,17.59724609886134
10,276855695.8336885
1762,0.0
1799,823459328.2699945
2,1, 7,21, 0,16,50.00,60.00,SummerDesignDay
8,17.55650676726033
10,276855695.8336885
1762,0.0
1799,814197515.867854
2,1, 7,21, 0,16, 0.00,60.00,SummerDesignDay
888,24.000000000000019
928,23.99999205827503
968,24.0
1008,24.000000000000005
1048,24.0
1088,24.00000000000004
1128,24.000000000000015
1168,24.00000000000004
1208,23.99999999999999
1248,24.000000000000026
1288,24.000000000000015
1328,24.000000000000019
1368,24.0
1408,24.0
1448,24.000000000000015
1488,24.000000000000033
1528,24.000000000000026
1568,23.999999999999976
1608,24.000000000000019
1648,23.99999999999999
2,1, 7,21, 0,17, 0.00,10.00,SummerDesignDay
8,17.50209486331892
10,276855695.8336885
1762,0.0
1799,804236228.9396775
2,1, 7,21, 0,17,10.00,20.00,SummerDesignDay
8,17.447570789624618
10,276855695.8336885
1762,0.0
1799,792295327.7719364
2,1, 7,21, 0,17,20.00,30.00,SummerDesignDay
8,17.392929544208135
10,276855695.8336885
1762,0.0
1799,780156566.6813058
2,1, 7,21, 0,17,30.00,40.00,SummerDesignDay
8,17.33818013976614
10,276855695.8336885
1762,0.0
1799,767847494.5254798
2,1, 7,21, 0,17,40.00,50.00,SummerDesignDay
8,17.283317298559309
10,276855695.8336885
1762,0.0
1799,755013412.4918316
2,1, 7,21, 0,17,50.00,60.00,SummerDesignDay
8,17.22833552437677
10,276855695.8336885
1762,0.0
1799,742021223.0975201
2,1, 7,21, 0,17, 0.00,60.00,SummerDesignDay
888,24.000000000000005
928,23.999999999752388
968,24.000000000000019
1008,24.000000000000033
1048,24.000000000000058
1088,24.00000000000001
1128,23.99999999999999
1168,24.000000000000047
1208,23.99999999999999
1248,23.99999999999997
1288,24.000000000000047
1328,24.0
1368,24.000000000000015
1408,24.00000000000001
1448,23.999999999999998
1488,24.00000000000001
1528,24.000000000000033
1568,24.0
1608,24.000000000000015
1648,24.000000000000015
2,1, 7,21, 0,18, 0.00,10.00,SummerDesignDay
8,17.159453019160176
10,276855695.8336885
1762,0.0
1799,732803398.1543118
2,1, 7,21, 0,18,10.00,20.00,SummerDesignDay
8,17.090391773337136
10,276855695.8336885
1762,0.0
1799,717293878.9599731
2,1, 7,21, 0,18,20.00,30.00,SummerDesignDay
8,17.021151077964786
10,276855695.8336885
1762,0.0
1799,701508984.1041676
2,1, 7,21, 0,18,30.00,40.00,SummerDesignDay
8,16.951729380464653
10,276855695.8336885
1762,0.0
1799,685681024.081296
2,1, 7,21, 0,18,40.00,50.00,SummerDesignDay
8,16.882126503829249
10,276855695.8336885
1762,0.0
1799,669764543.0291483
2,1, 7,21, 0,18,50.00,60.00,SummerDesignDay
8,16.812341807494034
10,276855695.8336885
1762,0.0
1799,652964318.5810492
2,1, 7,21, 0,18, 0.00,60.00,SummerDesignDay
888,24.000000000000015
928,24.0
968,24.000000000000005
1008,24.00000000000003
1048,24.000000000000026
1088,24.000000000000044
1128,24.000000000000015
1168,24.000000000000058
1208,24.000000000000033
1248,24.000000000000026
1288,24.0
1328,24.000000000000033
1368,24.000000000000005
1408,24.000000000000005
1448,24.000000000000005
1488,24.00000000000004
1528,23.99999999999999
1568,24.000000000000047
1608,24.000000000000047
1648,23.999999999999998
2,1, 7,21, 0,19, 0.00,10.00,SummerDesignDay
8,16.707321072823203
10,264090802.06985153
1762,0.0
1799,648311555.3717909
2,1, 7,21, 0,19,10.00,20.00,SummerDesignDay
8,16.601881826644556
10,264090802.06985153
1762,0.0
1799,626185671.7088626
2,1, 7,21, 0,19,20.00,30.00,SummerDesignDay
8,16.496030555252849
10,264090802.06985153
1762,0.0
1799,604002968.0138282
2,1, 7,21, 0,19,30.00,40.00,SummerDesignDay
8,16.389760181474104
10,264090802.06985153
1762,0.0
1799,580916452.880065
2,1, 7,21, 0,19,40.00,50.00,SummerDesignDay
8,16.283067654262039
10,264090802.06985153
1762,0.0
1799,557642907.3301714
2,1, 7,21, 0,19,50.00,60.00,SummerDesignDay
8,16.17595057957811
10,264090802.06985153
1762,0.0
1799,534005153.94603297
2,1, 7,21, 0,19, 0.00,60.00,SummerDesignDay
888,24.000000000000005
928,24.00000000000003
968,24.000000000000019
1008,23.99999999999999
1048,24.000000000000026
1088,24.000000000000019
1128,23.99999999999999
1168,24.000000000000026
1208,23.999999999999987
1248,24.000000000000033
1288,23.999999999999984
1328,24.000000000000019
1368,24.000000000000005
1408,24.0
1448,24.000000000000005
1488,24.000000000000015
1528,24.000000000000069
1568,23.99999999999999
1608,24.000000000000015
1648,24.000000000000015
2,1, 7,21, 0,20, 0.00,10.00,SummerDesignDay
8,16.097123145563505
10,227840603.76661245
1762,0.0
1799,500122826.6023163
2,1, 7,21, 0,20,10.00,20.00,SummerDesignDay
8,16.018070242471564
10,227840603.76661245
1762,0.0
1799,484061636.085603
2,1, 7,21, 0,20,20.00,30.00,SummerDesignDay
8,15.938779752340516
10,227840603.76661245
1762,0.0
1799,467981851.70544239
2,1, 7,21, 0,20,30.00,40.00,SummerDesignDay
8,15.85926152575189
10,227840603.76661245
1762,0.0
1799,451290426.89653798
2,1, 7,21, 0,20,40.00,50.00,SummerDesignDay
8,15.779503718563929
10,227840603.76661245
1762,0.0
1799,434154868.78326579
2,1, 7,21, 0,20,50.00,60.00,SummerDesignDay
8,15.699515709672767
10,227840603.76661245
1762,0.0
1799,415570715.5793224
2,1, 7,21, 0,20, 0.00,60.00,SummerDesignDay
888,24.000000000000015
928,23.999999999999934
968,24.00000000000003
1008,24.000000000000015
1048,24.00000000000001
1088,24.00000000000001
1128,23.999999999999987
1168,24.000000000000055
1208,23.999999999999987
1248,24.000000000000026
1288,24.000000000000019
1328,24.00000000000001
1368,24.746723461270308
1408,24.819612985767568
1448,24.513080799097187
1488,24.928340250097845
1528,24.000000000000005
1568,23.999999999999987
1608,24.00000000000001
1648,24.000000000000015
2,1, 7,21, 0,21, 0.00,10.00,SummerDesignDay
8,15.63389147320404
10,219643921.98515515
1762,0.0
1799,395015183.18503078
2,1, 7,21, 0,21,10.00,20.00,SummerDesignDay
8,15.56810827419793
10,219643921.98515515
1762,0.0
1799,377166480.72886118
2,1, 7,21, 0,21,20.00,30.00,SummerDesignDay
8,15.502170882753524
10,219643921.98515515
1762,0.0
1799,359109022.0965734
2,1, 7,21, 0,21,30.00,40.00,SummerDesignDay