Program Version,EnergyPlus, Version 8.9.0-eba93e8e1b, YMD=2019.04.04 17:58
1,5,Environment Title[],Latitude[deg],Longitude[deg],Time Zone[],Elevation[m]
2,8,Day of Simulation[],Month[],Day of Month[],DST Indicator[1=yes 0=no],Hour[],StartMinute[],EndMinute[],DayType
3,5,Cumulative Day of Simulation[],Month[],Day of Month[],DST Indicator[1=yes 0=no],DayType  ! When Daily Report Variables Requested
4,2,Cumulative Days of Simulation[],Month[]  ! When Monthly Report Variables Requested
5,1,Cumulative Days of Simulation[] ! When Run Period Report Variables Requested
6,1,Calendar Year of Simulation[] ! When Annual Report Variables Requested
7,9,Environment,Site Outdoor Air Drybulb Temperature [C] !Monthly [Value,Min,Day,Hour,Minute,Max,Day,Hour,Minute]
8,1,Environment,Site Outdoor Air Wetbulb Temperature [C] !TimeStep
357,1,AUDIENCE - AUDITORIUM-SPACE FUNCTION ZN,Zone Air Temperature [C] !Hourly
358,7,AUDIENCE - AUDITORIUM-SPACE FUNCTION ZN,Zone Air Relative Humidity [%] !Daily [Value,Min,Hour,Minute,Max,Hour,Minute]
397,1,AUDIENCE - MOTION PICTURE-SPACE FUNCTION ZN,Zone Air Temperature [C] !Hourly
398,7,AUDIENCE - MOTION PICTURE-SPACE FUNCTION ZN,Zone Air Relative Humidity [%] !Daily [Value,Min,Hour,Minute,Max,Hour,Minute]
437,1,AUDIENCE - PERFORMANCE ARTS-SPACE FUNCTION ZN,Zone Air Temperature [C] !Hourly
438,7,AUDIENCE - PERFORMANCE ARTS-SPACE FUNCTION ZN,Zone Air Relative Humidity [%] !Daily [Value,Min,Hour,Minute,Max,Hour,Minute]
477,1,AUTOMOTIVE - REPAIR-SPACE FUNCTION ZN,Zone Air Temperature [C] !Hourly
478,7,AUTOMOTIVE - REPAIR-SPACE FUNCTION ZN,Zone Air Relative Humidity [%] !Daily [Value,Min,Hour,Minute,Max,Hour,Minute]
517,1,BANK - BANKING AND OFFICES-SPACE FUNCTION ZN,Zone Air Temperature [C] !Hourly
518,7,BANK - BANKING AND OFFICES-SPACE FUNCTION ZN,Zone Air Relative Humidity [%] !Daily [Value,Min,Hour,Minute,Max,Hour,Minute]
10,1,Electricity:Facility [J] !TimeStep
668,1,DistrictCooling:Facility [J] !TimeStep
631,1,DistrictHeating:Facility [J] !TimeStep
End of Data Dictionary
1,FORT MCMURRAY AP ANN CLG .4% CONDNS DB=>MWB,  56.65,-111.22,  -7.00, 369.10
2,1, 7,21, 0, 1, 0.00,10.00,SummerDesignDay
8,14.218136923962174
10,5921200.720799876
631,0.0
668,0.0
2,1, 7,21, 0, 1,10.00,20.00,SummerDesignDay
8,14.171982153293495
10,5921200.720799876
631,0.0
668,0.0
2,1, 7,21, 0, 1,20.00,30.00,SummerDesignDay
8,14.125744780286427
10,5921200.720799876
631,0.0
668,0.0
2,1, 7,21, 0, 1,30.00,40.00,SummerDesignDay
8,14.079436086331978
10,5921200.720799876
631,0.0
668,0.0
2,1, 7,21, 0, 1,40.00,50.00,SummerDesignDay
8,14.033050387896898
10,5921200.720799876
631,0.0
668,0.0
2,1, 7,21, 0, 1,50.00,60.00,SummerDesignDay
8,13.986581233564835
10,5921200.720799876
631,0.0
668,0.0
2,1, 7,21, 0, 1, 0.00,60.00,SummerDesignDay
357,19.251479575926724
397,19.268154987740073
437,19.339891889213609
477,20.355597564646684
517,21.185477353994615
2,1, 7,21, 0, 2, 0.00,10.00,SummerDesignDay
8,13.95555882260429
10,5921200.720799876
631,0.0
668,0.0
2,1, 7,21, 0, 2,10.00,20.00,SummerDesignDay
8,13.924507755336454
10,5921200.720799876
631,0.0
668,0.0
2,1, 7,21, 0, 2,20.00,30.00,SummerDesignDay
8,13.893416042989206
10,5921200.720799876
631,0.0
668,0.0
2,1, 7,21, 0, 2,30.00,40.00,SummerDesignDay
8,13.862289589689029
10,5921200.720799876
631,0.0
668,0.0
2,1, 7,21, 0, 2,40.00,50.00,SummerDesignDay
8,13.831134407608739
10,5921200.720799876
631,0.0
668,0.0
2,1, 7,21, 0, 2,50.00,60.00,SummerDesignDay
8,13.799938415548118
10,5921200.720799876
631,0.0
668,0.0
2,1, 7,21, 0, 2, 0.00,60.00,SummerDesignDay
357,18.670703213546074
397,18.691673876384287
437,18.764683535893604
477,19.84542013936452
517,20.664859970640767
2,1, 7,21, 0, 3, 0.00,10.00,SummerDesignDay
8,13.776521671948676
10,5921200.720799876
631,0.0
668,0.0
2,1, 7,21, 0, 3,10.00,20.00,SummerDesignDay
8,13.753085235778466
10,5921200.720799876
631,0.0
668,0.0
2,1, 7,21, 0, 3,20.00,30.00,SummerDesignDay
8,13.729636002354969
10,5921200.720799876
631,0.0
668,0.0
2,1, 7,21, 0, 3,30.00,40.00,SummerDesignDay
8,13.706147375533054
10,5921200.720799876
631,0.0
668,0.0
2,1, 7,21, 0, 3,40.00,50.00,SummerDesignDay
8,13.682651961920304
10,5921200.720799876
631,0.0
668,0.0
2,1, 7,21, 0, 3,50.00,60.00,SummerDesignDay
8,13.659136670643687
10,5921200.720799876
631,0.0
668,0.0
2,1, 7,21, 0, 3, 0.00,60.00,SummerDesignDay
357,18.254971614675467
397,18.28025136891704
437,18.353571377346105
477,19.46290174976427
517,20.285200807749573
2,1, 7,21, 0, 4, 0.00,10.00,SummerDesignDay
8,13.63560137410855
10,5921200.720799876
631,0.0
668,0.0
2,1, 7,21, 0, 4,10.00,20.00,SummerDesignDay
8,13.612040802606578
10,5921200.720799876
631,421540.5895714407
668,0.0
2,1, 7,21, 0, 4,20.00,30.00,SummerDesignDay
8,13.58846620506876
10,5921200.720799876
631,2220990.6841835479
668,0.0
2,1, 7,21, 0, 4,30.00,40.00,SummerDesignDay
8,13.56487178447336
10,5921200.720799876
631,3302519.201900658
668,0.0
2,1, 7,21, 0, 4,40.00,50.00,SummerDesignDay
8,13.541257354069103
10,5921200.720799876
631,4898852.073653498
668,0.0
2,1, 7,21, 0, 4,50.00,60.00,SummerDesignDay
8,13.517617463812285
10,5921200.720799876
631,6088039.499523849
668,0.0
2,1, 7,21, 0, 4, 0.00,60.00,SummerDesignDay
357,18.011713594731075
397,18.01956210202975
437,18.052660329867284
477,19.163620293266779
517,19.99433084784553
2,1, 7,21, 0, 5, 0.00,10.00,SummerDesignDay
8,13.50185415824011
10,5921200.720799876
631,7004123.82917039
668,0.0
2,1, 7,21, 0, 5,10.00,20.00,SummerDesignDay
8,13.486076034032447
10,5921200.720799876
631,7862986.961861146
668,0.0
2,1, 7,21, 0, 5,20.00,30.00,SummerDesignDay
8,13.470289340350983
10,5921200.720799876
631,8695266.7307277
668,0.0
2,1, 7,21, 0, 5,30.00,40.00,SummerDesignDay
8,13.454493322631063
10,5921200.720799876
631,9514455.493838376
668,0.0
2,1, 7,21, 0, 5,40.00,50.00,SummerDesignDay
8,13.438688835118548
10,5921200.720799876
631,10323592.77548556
668,0.0
2,1, 7,21, 0, 5,50.00,60.00,SummerDesignDay
8,13.422888173889437
10,5921200.720799876
631,11124406.824070204
668,0.0
2,1, 7,21, 0, 5, 0.00,60.00,SummerDesignDay
357,18.00000158416513
397,18.000003375980254
437,18.000025261691535
477,18.917976559786955
517,19.76093047994496
2,1, 7,21, 0, 6, 0.00,10.00,SummerDesignDay
8,13.438688835118548
10,5921200.720799876
631,10417381.274607778
668,0.0
2,1, 7,21, 0, 6,10.00,20.00,SummerDesignDay
8,13.454493322631063
10,5921200.720799876
631,9703487.978511366
668,0.0
2,1, 7,21, 0, 6,20.00,30.00,SummerDesignDay
8,13.470289340350983
10,5921200.720799876
631,8985762.95581597
668,0.0
2,1, 7,21, 0, 6,30.00,40.00,SummerDesignDay
8,13.486076034032447
10,5921200.720799876
631,8259786.513584115
668,0.0
2,1, 7,21, 0, 6,40.00,50.00,SummerDesignDay
8,13.50185415824011
10,5921200.720799876
631,7531685.791921831
668,0.0
2,1, 7,21, 0, 6,50.00,60.00,SummerDesignDay
8,13.517617463812285
10,5921200.720799876
631,6798149.161571886
668,0.0
2,1, 7,21, 0, 6, 0.00,60.00,SummerDesignDay
357,18.000000000216568
397,18.000000000438275
437,18.000000003236634
477,18.80091259042069
517,19.638994939093718
2,1, 7,21, 0, 7, 0.00,10.00,SummerDesignDay
8,13.572736920571789
10,5921200.720799876
631,10196019.857390168
668,0.0
2,1, 7,21, 0, 7,10.00,20.00,SummerDesignDay
8,13.627748229152554
10,5921200.720799876
631,1575566.3226501253
668,0.0
2,1, 7,21, 0, 7,20.00,30.00,SummerDesignDay
8,13.682651961920304
10,5921200.720799876
631,1894.9019040814485
668,0.0
2,1, 7,21, 0, 7,30.00,40.00,SummerDesignDay
8,13.737448093244995
10,5921200.720799876
631,0.0
668,0.0
2,1, 7,21, 0, 7,40.00,50.00,SummerDesignDay
8,13.792137011831216
10,5921200.720799876
631,0.0
668,0.0
2,1, 7,21, 0, 7,50.00,60.00,SummerDesignDay
8,13.846719282840333
10,5921200.720799876
631,0.0
668,0.0
2,1, 7,21, 0, 7, 0.00,60.00,SummerDesignDay
357,18.05489616829999
397,18.071809430260485
437,18.101711806611865
477,18.935343997915596
517,20.12616008518149
2,1, 7,21, 0, 8, 0.00,10.00,SummerDesignDay
8,13.978831900527043
10,10674286.16423639
631,147743472.57497416
668,0.0
2,1, 7,21, 0, 8,10.00,20.00,SummerDesignDay
8,14.110321014287419
10,10674286.16423639
631,23823922.311479987
668,0.0
2,1, 7,21, 0, 8,20.00,30.00,SummerDesignDay
8,14.241191509616986
10,10674286.16423639
631,30267829.89566769
668,0.0
2,1, 7,21, 0, 8,30.00,40.00,SummerDesignDay
8,14.371447531304272
10,10674286.16423639
631,8353994.052375445
668,0.0
2,1, 7,21, 0, 8,40.00,50.00,SummerDesignDay
8,14.501093766564925
10,10674286.16423639
631,4280159.165949774
668,0.0
2,1, 7,21, 0, 8,50.00,60.00,SummerDesignDay
8,14.630134792273804
10,10674286.16423639
631,0.0
668,0.0
2,1, 7,21, 0, 8, 0.00,60.00,SummerDesignDay
357,20.06377755370591
397,20.06418280852498
437,20.065417863703897
477,20.135674234427225
517,22.27820850738375
2,1, 7,21, 0, 9, 0.00,10.00,SummerDesignDay
8,14.773641492809972
10,56118282.95863621
631,123992249.58414465
668,0.0
2,1, 7,21, 0, 9,10.00,20.00,SummerDesignDay
8,14.91640948124148
10,56118282.95863621
631,3262309.485533649
668,0.0
2,1, 7,21, 0, 9,20.00,30.00,SummerDesignDay
8,15.05843890714102
10,56118282.95863621
631,237237.17205834419
668,3199798.4084061759
2,1, 7,21, 0, 9,30.00,40.00,SummerDesignDay
8,15.199735893563798
10,56118282.95863621
631,0.0
668,9018301.725777308
2,1, 7,21, 0, 9,40.00,50.00,SummerDesignDay
8,15.340306256439395
10,56118282.95863621
631,0.0
668,12424262.534900673
2,1, 7,21, 0, 9,50.00,60.00,SummerDesignDay
8,15.48015101768072
10,56118282.95863621
631,0.0
668,13913019.775147308
2,1, 7,21, 0, 9, 0.00,60.00,SummerDesignDay
357,22.2768623620041
397,22.40829488157333
437,22.827416487405519
477,22.75772976296413
517,23.63554225376461
2,1, 7,21, 0,10, 0.00,10.00,SummerDesignDay
8,15.60467292907716
10,88649262.22032129
631,0.0
668,29248390.034486168
2,1, 7,21, 0,10,10.00,20.00,SummerDesignDay
8,15.72862731650033
10,88649262.22032129
631,0.0
668,48828881.29812494
2,1, 7,21, 0,10,20.00,30.00,SummerDesignDay
8,15.852017409284228
10,88649262.22032129
631,0.0
668,67353472.223644
2,1, 7,21, 0,10,30.00,40.00,SummerDesignDay
8,15.974848118364367
10,88649262.22032129
631,0.0
668,83612116.00810401
2,1, 7,21, 0,10,40.00,50.00,SummerDesignDay
8,16.097123145563505
10,88649262.22032129
631,0.0
668,95809032.75457934
2,1, 7,21, 0,10,50.00,60.00,SummerDesignDay
8,16.218846351168599
10,88649262.22032129
631,0.0
668,109533319.42840252
2,1, 7,21, 0,10, 0.00,60.00,SummerDesignDay
357,23.778441422210237
397,23.879335550091427
437,23.992101504531005
477,23.919239985529719
517,23.999999963190608
2,1, 7,21, 0,11, 0.00,10.00,SummerDesignDay
8,16.325793027093189
10,91394239.37472873
631,0.0
668,140997298.58264665
2,1, 7,21, 0,11,10.00,20.00,SummerDesignDay
8,16.432322158488288
10,91394239.37472873
631,0.0
668,152166073.93703366
2,1, 7,21, 0,11,20.00,30.00,SummerDesignDay
8,16.538424180249178
10,91394239.37472873
631,0.0
668,162108912.9605938
2,1, 7,21, 0,11,30.00,40.00,SummerDesignDay
8,16.644108396469087
10,91394239.37472873
631,0.0
668,171562683.54011137
2,1, 7,21, 0,11,40.00,50.00,SummerDesignDay
8,16.749376736593655
10,91394239.37472873
631,0.0
668,180389769.08285035
2,1, 7,21, 0,11,50.00,60.00,SummerDesignDay
8,16.854232613237156
10,91394239.37472873
631,0.0
668,189092617.67095585
2,1, 7,21, 0,11, 0.00,60.00,SummerDesignDay
357,23.99999526217592
397,23.999999144109066
437,23.999999968355114
477,23.99999999971644
517,24.00000000000001
2,1, 7,21, 0,12, 0.00,10.00,SummerDesignDay
8,16.92390823520069
10,91394239.37472873
631,0.0
668,194951252.60639776
2,1, 7,21, 0,12,10.00,20.00,SummerDesignDay
8,16.99340178950456
10,91394239.37472873
631,0.0
668,200702898.423128
2,1, 7,21, 0,12,20.00,30.00,SummerDesignDay
8,17.06272006743463
10,91394239.37472873
631,0.0
668,206378447.27429057
2,1, 7,21, 0,12,30.00,40.00,SummerDesignDay
8,17.131853229172639
10,91394239.37472873
631,0.0
668,211890540.6581462
2,1, 7,21, 0,12,40.00,50.00,SummerDesignDay
8,17.200807172194087
10,91394239.37472873
631,0.0
668,217010492.78832955
2,1, 7,21, 0,12,50.00,60.00,SummerDesignDay
8,17.269582116758607
10,91394239.37472873
631,0.0
668,222085905.26610465
2,1, 7,21, 0,12, 0.00,60.00,SummerDesignDay
357,23.99999999933475
397,23.999999999893423
437,23.999999999996619
477,24.00000000000001
517,24.00000000000001
2,1, 7,21, 0,13, 0.00,10.00,SummerDesignDay
8,17.32447360221357
10,91394239.37472873
631,0.0
668,232921304.32787926
2,1, 7,21, 0,13,10.00,20.00,SummerDesignDay
8,17.379251291230806
10,91394239.37472873
631,0.0
668,236774053.68427355
2,1, 7,21, 0,13,20.00,30.00,SummerDesignDay
8,17.433921312061729
10,91394239.37472873
631,0.0
668,240271330.2684557
2,1, 7,21, 0,13,30.00,40.00,SummerDesignDay
8,17.488473222557489
10,91394239.37472873
631,0.0
668,243800798.30003173
2,1, 7,21, 0,13,40.00,50.00,SummerDesignDay
8,17.542913447755134
10,91394239.37472873
631,0.0
668,247325108.22436384
2,1, 7,21, 0,13,50.00,60.00,SummerDesignDay
8,17.59724609886134
10,91394239.37472873
631,0.0
668,250846241.10521776
2,1, 7,21, 0,13, 0.00,60.00,SummerDesignDay
357,23.999999999999888
397,24.000000000000026
437,24.000000000000058
477,24.0
517,24.000000000000026
2,1, 7,21, 0,14, 0.00,10.00,SummerDesignDay
8,17.6311450462694
10,91394239.37472873
631,0.0
668,253057029.52473397
2,1, 7,21, 0,14,10.00,20.00,SummerDesignDay
8,17.665000449016245
10,91394239.37472873
631,0.0
668,255260203.02058
2,1, 7,21, 0,14,20.00,30.00,SummerDesignDay
8,17.698812743128934
10,91394239.37472873
631,0.0
668,257456819.9316229
2,1, 7,21, 0,14,30.00,40.00,SummerDesignDay
8,17.732582050940107
10,91394239.37472873
631,0.0
668,259648365.17533837
2,1, 7,21, 0,14,40.00,50.00,SummerDesignDay
8,17.766307345121004
10,91394239.37472873
631,0.0
668,261836036.4303534
2,1, 7,21, 0,14,50.00,60.00,SummerDesignDay
8,17.79999023167558
10,91394239.37472873
631,0.0
668,264015070.812061
2,1, 7,21, 0,14, 0.00,60.00,SummerDesignDay
357,23.99999999999997
397,24.000000000000026
437,23.999999999999948
477,23.99999999999999
517,24.00000000000004
2,1, 7,21, 0,15, 0.00,10.00,SummerDesignDay
8,17.79999023167558
10,91394239.37472873
631,0.0
668,263874339.28107266
2,1, 7,21, 0,15,10.00,20.00,SummerDesignDay
8,17.79999023167558
10,91394239.37472873
631,0.0
668,263901559.27595634
2,1, 7,21, 0,15,20.00,30.00,SummerDesignDay
8,17.79999023167558
10,91394239.37472873
631,0.0
668,263941064.47104384
2,1, 7,21, 0,15,30.00,40.00,SummerDesignDay
8,17.79999023167558
10,91394239.37472873
631,0.0
668,263982558.91835074
2,1, 7,21, 0,15,40.00,50.00,SummerDesignDay
8,17.79999023167558
10,91394239.37472873
631,0.0
668,264018121.5308113
2,1, 7,21, 0,15,50.00,60.00,SummerDesignDay
8,17.79999023167558
10,91394239.37472873
631,0.0
668,264045530.07215933
2,1, 7,21, 0,15, 0.00,60.00,SummerDesignDay
357,23.99999999999999
397,24.00000000000003
437,23.99999999999996
477,24.000000000000015
517,24.000000000000026
2,1, 7,21, 0,16, 0.00,10.00,SummerDesignDay
8,17.759562446305357
10,91394239.37472873
631,0.0
668,262833745.02923537
2,1, 7,21, 0,16,10.00,20.00,SummerDesignDay
8,17.71907809634183
10,91394239.37472873
631,0.0
668,260322744.95637069
2,1, 7,21, 0,16,20.00,30.00,SummerDesignDay
8,17.67853788661001
10,91394239.37472873
631,0.0
668,257734644.6276725
2,1, 7,21, 0,16,30.00,40.00,SummerDesignDay
8,17.63791796367351
10,91394239.37472873
631,0.0
668,255151953.91752816
2,1, 7,21, 0,16,40.00,50.00,SummerDesignDay
8,17.59724609886134
10,91394239.37472873
631,0.0
668,252567693.22662164
2,1, 7,21, 0,16,50.00,60.00,SummerDesignDay
8,17.55650676726033
10,91394239.37472873
631,0.0
668,249976912.25831346
2,1, 7,21, 0,16, 0.00,60.00,SummerDesignDay
357,24.00000000000003
397,24.00000000000001
437,24.000000000000019
477,24.00000000000003
517,24.00000000000004
2,1, 7,21, 0,17, 0.00,10.00,SummerDesignDay
8,17.50209486331892
10,91394239.37472873
631,0.0
668,250302631.19058738
2,1, 7,21, 0,17,10.00,20.00,SummerDesignDay
8,17.447570789624618
10,91394239.37472873
631,0.0
668,247037511.92559669
2,1, 7,21, 0,17,20.00,30.00,SummerDesignDay
8,17.392929544208135
10,91394239.37472873
631,0.0
668,243573594.63227327
2,1, 7,21, 0,17,30.00,40.00,SummerDesignDay
8,17.33818013976614
10,91394239.37472873
631,0.0
668,240135768.7405745
2,1, 7,21, 0,17,40.00,50.00,SummerDesignDay
8,17.283317298559309
10,91394239.37472873
631,0.0
668,236696317.48063789
2,1, 7,21, 0,17,50.00,60.00,SummerDesignDay
8,17.22833552437677
10,91394239.37472873
631,0.0
668,233251260.30856277
2,1, 7,21, 0,17, 0.00,60.00,SummerDesignDay
357,24.000000000000015
397,23.999999999999969
437,24.000000000000055
477,24.000000000000005
517,24.000000000000044
2,1, 7,21, 0,18, 0.00,10.00,SummerDesignDay
8,17.159453019160176
10,89718003.32475662
631,0.0
668,222846969.93999548
2,1, 7,21, 0,18,10.00,20.00,SummerDesignDay
8,17.090391773337136
10,89718003.32475662
631,0.0
668,217948644.63800625
2,1, 7,21, 0,18,20.00,30.00,SummerDesignDay
8,17.021151077964786
10,89718003.32475662
631,0.0
668,212949281.57639129
2,1, 7,21, 0,18,30.00,40.00,SummerDesignDay
8,16.951729380464653
10,89718003.32475662
631,0.0
668,207896777.13281454
2,1, 7,21, 0,18,40.00,50.00,SummerDesignDay
8,16.882126503829249
10,89718003.32475662
631,0.0
668,202586429.42332558
2,1, 7,21, 0,18,50.00,60.00,SummerDesignDay
8,16.812341807494034
10,89718003.32475662
631,0.0
668,197065977.40414078
2,1, 7,21, 0,18, 0.00,60.00,SummerDesignDay
357,24.0
397,24.000000000000019
437,24.000000000000005
477,24.000000000000015
517,24.00000000000003
2,1, 7,21, 0,19, 0.00,10.00,SummerDesignDay
8,16.707321072823203
10,75576871.01479669
631,0.0
668,162841077.25561957
2,1, 7,21, 0,19,10.00,20.00,SummerDesignDay
8,16.601881826644556
10,75576871.01479669
631,0.0
668,152721968.69573603
2,1, 7,21, 0,19,20.00,30.00,SummerDesignDay
8,16.496030555252849
10,75576871.01479669
631,0.0
668,143545677.70339439
2,1, 7,21, 0,19,30.00,40.00,SummerDesignDay
8,16.389760181474104
10,75576871.01479669
631,0.0
668,133954731.26889211
2,1, 7,21, 0,19,40.00,50.00,SummerDesignDay
8,16.283067654262039
10,75576871.01479669
631,0.0
668,124473617.12405655
2,1, 7,21, 0,19,50.00,60.00,SummerDesignDay
8,16.17595057957811
10,75576871.01479669
631,0.0
668,115072754.45973993
2,1, 7,21, 0,19, 0.00,60.00,SummerDesignDay
357,24.00000000000001
397,24.000000000000026
437,24.000000000000019
477,24.0
517,24.0
2,1, 7,21, 0,20, 0.00,10.00,SummerDesignDay
8,16.097123145563505
10,46664611.63643027
631,0.0
668,65496322.05349124
2,1, 7,21, 0,20,10.00,20.00,SummerDesignDay
8,16.018070242471564
10,46664611.63643027
631,0.0
668,56216744.49558668
2,1, 7,21, 0,20,20.00,30.00,SummerDesignDay
8,15.938779752340516
10,46664611.63643027
631,0.0
668,49278192.465375568
2,1, 7,21, 0,20,30.00,40.00,SummerDesignDay
8,15.85926152575189
10,46664611.63643027
631,0.0
668,42172938.64346436
2,1, 7,21, 0,20,40.00,50.00,SummerDesignDay
8,15.779503718563929
10,46664611.63643027
631,0.0
668,35309704.010869439
2,1, 7,21, 0,20,50.00,60.00,SummerDesignDay
8,15.699515709672767
10,46664611.63643027
631,0.0
668,28573258.44470187
2,1, 7,21, 0,20, 0.00,60.00,SummerDesignDay
357,24.0
397,24.000000000000026
437,24.0
477,23.882851131223459
517,24.000000000000005
2,1, 7,21, 0,21, 0.00,10.00,SummerDesignDay
8,15.63389147320404
10,40120916.09603139
631,0.0
668,16601695.980977256
2,1, 7,21, 0,21,10.00,20.00,SummerDesignDay
8,15.56810827419793
10,40120916.09603139
631,0.0
668,12228360.322889995
2,1, 7,21, 0,21,20.00,30.00,SummerDesignDay
8,15.502170882753524
10,40120916.09603139
631,0.0
668,9201196.865381562
2,1, 7,21, 0,21,30.00,40.00,SummerDesignDay
8,15.436068032613852
10,40120916.09603139
631,0.0
668,7277009.2415051669
2,1, 7,21, 0,21,40.00,50.00,SummerDesignDay
8,15.369804371206009
10,40120916.09603139
631,0.0
668,5382363.119471772
2,1, 7,21, 0,21,50.00,60.00,SummerDesignDay
8,15.303384603594449
10,40120916.09603139
631,0.0
668,3495716.8588122969
2,1, 7,21, 0,21, 0.00,60.00,SummerDesignDay
357,23.779710710543495
397,23.909556891287143
437,24.000000000000026
477,23.207772849706914
517,24.0
2,1, 7,21, 0,22, 0.00,10.00,SummerDesignDay
8,15.236797685071274
10,6759318.7457859269
631,0.0
668,0.0
2,1, 7,21, 0,22,10.00,20.00,SummerDesignDay
8,15.170047891787942
10,6759318.7457859269
631,0.0
668,0.0
2,1, 7,21, 0,22,20.00,30.00,SummerDesignDay
8,15.103134826860483
10,6759318.7457859269
631,0.0
668,0.0
2,1, 7,21, 0,22,30.00,40.00,SummerDesignDay
8,15.036063385178485
10,6759318.7457859269
631,0.0
668,0.0
2,1, 7,21, 0,22,40.00,50.00,SummerDesignDay
8,14.968821767219835
10,6759318.7457859269
631,0.0
668,0.0
2,1, 7,21, 0,22,50.00,60.00,SummerDesignDay
8,14.90141525878635
10,6759318.7457859269
631,0.0
668,0.0
2,1, 7,21, 0,22, 0.00,60.00,SummerDesignDay
357,22.20156737679061
397,22.284102702301948
437,22.435177572873206
477,22.55087516082479
517,23.63070416657307
2,1, 7,21, 0,23, 0.00,10.00,SummerDesignDay
8,14.848873673278373
10,6759318.7457859269
631,0.0
668,0.0
2,1, 7,21, 0,23,10.00,20.00,SummerDesignDay
8,14.796237168136719
10,6759318.7457859269
631,0.0
668,0.0
2,1, 7,21, 0,23,20.00,30.00,SummerDesignDay
8,14.743494321455645
10,6759318.7457859269
631,0.0
668,0.0
2,1, 7,21, 0,23,30.00,40.00,SummerDesignDay
8,14.690649975253665
10,6759318.7457859269
631,0.0
668,0.0
2,1, 7,21, 0,23,40.00,50.00,SummerDesignDay
8,14.637704281233117
10,6759318.7457859269
631,0.0
668,0.0
2,1, 7,21, 0,23,50.00,60.00,SummerDesignDay
8,14.584656914839757
10,6759318.7457859269
631,0.0
668,0.0
2,1, 7,21, 0,23, 0.00,60.00,SummerDesignDay
357,20.81572907547704
397,20.826832326295628
437,20.903990537331464
477,21.687246941507387
517,22.774807822322669
2,1, 7,21, 0,24, 0.00,10.00,SummerDesignDay
8,14.531507212058875
10,5921200.720799876
631,0.0
668,0.0
2,1, 7,21, 0,24,10.00,20.00,SummerDesignDay
8,14.47825496413355
10,5921200.720799876
631,0.0
668,0.0
2,1, 7,21, 0,24,20.00,30.00,SummerDesignDay
8,14.4249000133173
10,5921200.720799876
631,0.0
668,0.0
2,1, 7,21, 0,24,30.00,40.00,SummerDesignDay
8,14.371447531304272
10,5921200.720799876
631,0.0
668,0.0
2,1, 7,21, 0,24,40.00,50.00,SummerDesignDay
8,14.31788619902223
10,5921200.720799876
631,0.0
668,0.0
2,1, 7,21, 0,24,50.00,60.00,SummerDesignDay
8,14.264220970176066
10,5921200.720799876
631,0.0
668,0.0
2,1, 7,21, 0,24, 0.00,60.00,SummerDesignDay
357,19.981696466869779
397,19.9935267785534
437,20.06375506368888
477,20.97508743920503
517,21.914287972037788
3,1, 7,21, 0,SummerDesignDay
358,52.07856502419048,42.57590445060434,12,60,65.31140094276062, 6,50
398,51.902563782676747,42.27941434232598,12,60,65.31140094276059, 6,50
438,51.02700024589262,41.3907344882435,12,60,65.31140094276036, 6,50
478,50.30943269483254,42.26748318296143,15,60,62.14032859343367, 6,30
518,47.925374141662398,41.664587446051069,14,60,58.97995119744195, 6,40
4,1, 7
7,22.2505,16.5,21, 5,60,28.9,21,14,60
1,FORT MCMURRAY AP ANN HTG 99.6% CONDNS DB,  56.65,-111.22,  -7.00, 369.10
2,1, 1,21, 0, 1, 0.00,10.00,WinterDesignDay
8,-36.2
10,5921200.720799876
631,1108440030.468388
668,0.0
2,1, 1,21, 0, 1,10.00,20.00,WinterDesignDay
8,-36.2
10,5921200.720799876
631,1108509255.5736299
668,0.0
2,1, 1,21, 0, 1,20.00,30.00,WinterDesignDay
8,-36.2
10,5921200.720799876
631,1108569134.9925369
668,0.0
2,1, 1,21, 0, 1,30.00,40.00,WinterDesignDay
8,-36.2
10,5921200.720799876
631,1108623868.729778
668,0.0
2,1, 1,21, 0, 1,40.00,50.00,WinterDesignDay
8,-36.2
10,5921200.720799876
631,1108671387.388236
668,0.0
2,1, 1,21, 0, 1,50.00,60.00,WinterDesignDay
8,-36.2
10,5921200.720799876
631,1108711916.2480903
668,0.0
2,1, 1,21, 0, 1, 0.00,60.00,WinterDesignDay
357,18.000000000000005
397,18.000000000000005
437,18.000000000000005
477,18.000000000000005
517,18.000000000000005
2,1, 1,21, 0, 2, 0.00,10.00,WinterDesignDay
8,-36.2
10,5921200.720799876
631,1108746315.3569446
668,0.0
2,1, 1,21, 0, 2,10.00,20.00,WinterDesignDay
8,-36.2
10,5921200.720799876
631,1108775526.080756
668,0.0
2,1, 1,21, 0, 2,20.00,30.00,WinterDesignDay
8,-36.2
10,5921200.720799876
631,1108800401.2394365
668,0.0
2,1, 1,21, 0, 2,30.00,40.00,WinterDesignDay
8,-36.2
10,5921200.720799876
631,1108821666.707054
668,0.0
2,1, 1,21, 0, 2,40.00,50.00,WinterDesignDay
8,-36.2
10,5921200.720799876
631,1108834696.4579385
668,0.0
2,1, 1,21, 0, 2,50.00,60.00,WinterDesignDay
8,-36.2
10,5921200.720799876
631,1108845539.257633
668,0.0
2,1, 1,21, 0, 2, 0.00,60.00,WinterDesignDay
357,18.0
397,18.000000000000005
437,18.0
477,18.000000000000005
517,18.000000000000005
2,1, 1,21, 0, 3, 0.00,10.00,WinterDesignDay
8,-36.2
10,5921200.720799876
631,1108856608.5138837
668,0.0
2,1, 1,21, 0, 3,10.00,20.00,WinterDesignDay
8,-36.2
10,5921200.720799876
631,1108867220.3207715
668,0.0
2,1, 1,21, 0, 3,20.00,30.00,WinterDesignDay
8,-36.2
10,5921200.720799876
631,1108877199.7131048
668,0.0
2,1, 1,21, 0, 3,30.00,40.00,WinterDesignDay
8,-36.2
10,5921200.720799876
631,1108886405.9064878
668,0.0
2,1, 1,21, 0, 3,40.00,50.00,WinterDesignDay
8,-36.2
10,5921200.720799876
631,1108894855.8317633
668,0.0
2,1, 1,21, 0, 3,50.00,60.00,WinterDesignDay
8,-36.2
10,5921200.720799876
631,1108902564.3496195
668,0.0
2,1, 1,21, 0, 3, 0.00,60.00,WinterDesignDay
357,18.0
397,18.000000000000005
437,18.000000000000005
477,18.000000000000005
517,18.000000000000008
2,1, 1,21, 0, 4, 0.00,10.00,WinterDesignDay
8,-36.2
10,5921200.720799876
631,1108909590.9702869
668,0.0
2,1, 1,21, 0, 4,10.00,20.00,WinterDesignDay
8,-36.2
10,5921200.720799876
631,1108915986.56518
668,0.0
2,1, 1,21, 0, 4,20.00,30.00,WinterDesignDay
8,-36.2
10,5921200.720799876
631,1108921811.3395949
668,0.0
2,1, 1,21, 0, 4,30.00,40.00,WinterDesignDay
8,-36.2
10,5921200.720799876
631,1108927117.357036
668,0.0
2,1, 1,21, 0, 4,40.00,50.00,WinterDesignDay
8,-36.2
10,5921200.720799876
631,1108931955.7126544
668,0.0
2,1, 1,21, 0, 4,50.00,60.00,WinterDesignDay
8,-36.2
10,5921200.720799876
631,1108936371.0586148
668,0.0
2,1, 1,21, 0, 4, 0.00,60.00,WinterDesignDay
357,18.000000000000005
397,18.000000000000005
437,18.0
477,18.0
517,18.000000000000008
2,1, 1,21, 0, 5, 0.00,10.00,WinterDesignDay
8,-36.2
10,5921200.720799876
631,1108940404.6575163
668,0.0
2,1, 1,21, 0, 5,10.00,20.00,WinterDesignDay
8,-36.2
10,5921200.720799876
631,1108944092.8767973
668,0.0
2,1, 1,21, 0, 5,20.00,30.00,WinterDesignDay
8,-36.2
10,5921200.720799876
631,1108947468.6200016
668,0.0
2,1, 1,21, 0, 5,30.00,40.00,WinterDesignDay
8,-36.2
10,5921200.720799876
631,1108950561.0868388
668,0.0
2,1, 1,21, 0, 5,40.00,50.00,WinterDesignDay
8,-36.2
10,5921200.720799876
631,1108953396.5293012
668,0.0
2,1, 1,21, 0, 5,50.00,60.00,WinterDesignDay
8,-36.2
10,5921200.720799876
631,1108955998.3771206
668,0.0
2,1, 1,21, 0, 5, 0.00,60.00,WinterDesignDay
357,18.000000000000005
397,18.000000000000005
437,18.0
477,18.000000000000005
517,18.000000000000005
2,1, 1,21, 0, 6, 0.00,10.00,WinterDesignDay
8,-36.2
10,5921200.720799876
631,1108958387.6878205
668,0.0
2,1, 1,21, 0, 6,10.00,20.00,WinterDesignDay
8,-36.2
10,5921200.720799876
631,1108960583.3466798
668,0.0
2,1, 1,21, 0, 6,20.00,30.00,WinterDesignDay
8,-36.2
10,5921200.720799876
631,1108962602.361769
668,0.0
2,1, 1,21, 0, 6,30.00,40.00,WinterDesignDay
8,-36.2
10,5921200.720799876
631,1108964460.0516599
668,0.0
2,1, 1,21, 0, 6,40.00,50.00,WinterDesignDay
8,-36.2
10,5921200.720799876
631,1108966170.252207
668,0.0
2,1, 1,21, 0, 6,50.00,60.00,WinterDesignDay
8,-36.2
10,5921200.720799876
631,1108967745.4719113
668,0.0
2,1, 1,21, 0, 6, 0.00,60.00,WinterDesignDay
357,18.000000000000005
397,18.0
437,18.000000000000005
477,18.0
517,18.000000000000005
2,1, 1,21, 0, 7, 0.00,10.00,WinterDesignDay
8,-36.2
10,5921200.720799876
631,1135405265.0167754
668,0.0
2,1, 1,21, 0, 7,10.00,20.00,WinterDesignDay
8,-36.2
10,5921200.720799876
631,1093865637.2495664
668,0.0
2,1, 1,21, 0, 7,20.00,30.00,WinterDesignDay
8,-36.2
10,5921200.720799876
631,1119935621.6481286
668,0.0
2,1, 1,21, 0, 7,30.00,40.00,WinterDesignDay
8,-36.2
10,5921200.720799876
631,1113556411.8748527
668,0.0
2,1, 1,21, 0, 7,40.00,50.00,WinterDesignDay
8,-36.2
10,5921200.720799876
631,1113527705.0525754
668,0.0
2,1, 1,21, 0, 7,50.00,60.00,WinterDesignDay
8,-36.2
10,5921200.720799876
631,1113405669.410902
668,0.0
2,1, 1,21, 0, 7, 0.00,60.00,WinterDesignDay
357,18.000000000000005
397,18.000000000000005
437,18.000000000000005
477,18.000000000000005
517,20.007617567176565
2,1, 1,21, 0, 8, 0.00,10.00,WinterDesignDay
8,-36.2
10,10674286.16423639
631,1271517746.5905565
668,0.0
2,1, 1,21, 0, 8,10.00,20.00,WinterDesignDay
8,-36.2
10,10674286.16423639
631,1064881828.6692212
668,0.0
2,1, 1,21, 0, 8,20.00,30.00,WinterDesignDay
8,-36.2
10,10674286.16423639
631,1193905092.0126618
668,0.0
2,1, 1,21, 0, 8,30.00,40.00,WinterDesignDay
8,-36.2
10,10674286.16423639
631,1163605789.9347587
668,0.0
2,1, 1,21, 0, 8,40.00,50.00,WinterDesignDay
8,-36.2
10,10674286.16423639
631,1162676021.4658995
668,0.0
2,1, 1,21, 0, 8,50.00,60.00,WinterDesignDay
8,-36.2
10,10674286.16423639
631,1162003176.8781045
668,0.0
2,1, 1,21, 0, 8, 0.00,60.00,WinterDesignDay
357,19.997084078854777
397,19.99708722280168
437,19.997093005977566
477,20.001190282861484
517,22.007335131164909
2,1, 1,21, 0, 9, 0.00,10.00,WinterDesignDay
8,-36.2
10,56118282.95863621
631,1255554989.7651287
668,0.0
2,1, 1,21, 0, 9,10.00,20.00,WinterDesignDay
8,-36.2
10,56118282.95863621
631,1092168068.3266597
668,0.0
2,1, 1,21, 0, 9,20.00,30.00,WinterDesignDay
8,-36.2
10,56118282.95863621
631,1194051928.2418318
668,0.0
2,1, 1,21, 0, 9,30.00,40.00,WinterDesignDay
8,-36.2
10,56118282.95863621
631,1169117243.5833619
668,0.0
2,1, 1,21, 0, 9,40.00,50.00,WinterDesignDay
8,-36.2
10,56118282.95863621
631,1167567142.9069436
668,0.0
2,1, 1,21, 0, 9,50.00,60.00,WinterDesignDay
8,-36.2
10,56118282.95863621
631,1166207235.0677276
668,0.0
2,1, 1,21, 0, 9, 0.00,60.00,WinterDesignDay
357,21.99693958560462
397,21.996957019476239
437,21.99699554741746
477,22.000822671957669
517,22.000000000000015
2,1, 1,21, 0,10, 0.00,10.00,WinterDesignDay
8,-36.2
10,88649262.22032129
631,1137347079.8408368
668,0.0
2,1, 1,21, 0,10,10.00,20.00,WinterDesignDay
8,-36.2
10,88649262.22032129
631,1131645121.2177683
668,0.0
2,1, 1,21, 0,10,20.00,30.00,WinterDesignDay
8,-36.2
10,88649262.22032129
631,1130640076.7431765
668,0.0
2,1, 1,21, 0,10,30.00,40.00,WinterDesignDay
8,-36.2
10,88649262.22032129
631,1129220605.5998474
668,0.0
2,1, 1,21, 0,10,40.00,50.00,WinterDesignDay
8,-36.2
10,88649262.22032129
631,1128230845.274415
668,0.0
2,1, 1,21, 0,10,50.00,60.00,WinterDesignDay
8,-36.2
10,88649262.22032129
631,1127425456.257272
668,0.0