Program Version,EnergyPlus, Version 8.9.0-eba93e8e1b, YMD=2019.03.28 14:26
1,5,Environment Title[],Latitude[deg],Longitude[deg],Time Zone[],Elevation[m]
2,8,Day of Simulation[],Month[],Day of Month[],DST Indicator[1=yes 0=no],Hour[],StartMinute[],EndMinute[],DayType
3,5,Cumulative Day of Simulation[],Month[],Day of Month[],DST Indicator[1=yes 0=no],DayType  ! When Daily Report Variables Requested
4,2,Cumulative Days of Simulation[],Month[]  ! When Monthly Report Variables Requested
5,1,Cumulative Days of Simulation[] ! When Run Period Report Variables Requested
6,1,Calendar Year of Simulation[] ! When Annual Report Variables Requested
7,9,Environment,Site Outdoor Air Drybulb Temperature [C] !Monthly [Value,Min,Day,Hour,Minute,Max,Day,Hour,Minute]
8,1,Environment,Site Outdoor Air Wetbulb Temperature [C] !TimeStep
745,1,CONVENTION CENTRE EXHIBIT SPACE-SPACE FUNCTION ZN,Zone Air Temperature [C] !Hourly
746,7,CONVENTION CENTRE EXHIBIT SPACE-SPACE FUNCTION ZN,Zone Air Relative Humidity [%] !Daily [Value,Min,Hour,Minute,Max,Hour,Minute]
785,1,DORMITORY LIVING QUARTERS-SPACE FUNCTION ZN,Zone Air Temperature [C] !Hourly
786,7,DORMITORY LIVING QUARTERS-SPACE FUNCTION ZN,Zone Air Relative Humidity [%] !Daily [Value,Min,Hour,Minute,Max,Hour,Minute]
825,1,DWELLING UNITS GENERAL-SPACE FUNCTION ZN,Zone Air Temperature [C] !Hourly
826,7,DWELLING UNITS GENERAL-SPACE FUNCTION ZN,Zone Air Relative Humidity [%] !Daily [Value,Min,Hour,Minute,Max,Hour,Minute]
865,1,DWELLING UNITS LONG-TERM-SPACE FUNCTION ZN,Zone Air Temperature [C] !Hourly
866,7,DWELLING UNITS LONG-TERM-SPACE FUNCTION ZN,Zone Air Relative Humidity [%] !Daily [Value,Min,Hour,Minute,Max,Hour,Minute]
905,1,STORAGE ROOM <= 5 M2 <= 100 M2-SCH-I-SPACE FUNCTION ZN,Zone Air Temperature [C] !Hourly
906,7,STORAGE ROOM <= 5 M2 <= 100 M2-SCH-I-SPACE FUNCTION ZN,Zone Air Relative Humidity [%] !Daily [Value,Min,Hour,Minute,Max,Hour,Minute]
945,1,STORAGE ROOM <= 5 M2 <= 100 M2-SCH-J-SPACE FUNCTION ZN,Zone Air Temperature [C] !Hourly
946,7,STORAGE ROOM <= 5 M2 <= 100 M2-SCH-J-SPACE FUNCTION ZN,Zone Air Relative Humidity [%] !Daily [Value,Min,Hour,Minute,Max,Hour,Minute]
985,1,STORAGE ROOM <= 5 M2 <= 100 M2-SCH-K-SPACE FUNCTION ZN,Zone Air Temperature [C] !Hourly
986,7,STORAGE ROOM <= 5 M2 <= 100 M2-SCH-K-SPACE FUNCTION ZN,Zone Air Relative Humidity [%] !Daily [Value,Min,Hour,Minute,Max,Hour,Minute]
1025,1,STORAGE ROOM > 100 M2-SCH-A-SPACE FUNCTION ZN,Zone Air Temperature [C] !Hourly
1026,7,STORAGE ROOM > 100 M2-SCH-A-SPACE FUNCTION ZN,Zone Air Relative Humidity [%] !Daily [Value,Min,Hour,Minute,Max,Hour,Minute]
1065,1,STORAGE ROOM > 100 M2-SCH-B-SPACE FUNCTION ZN,Zone Air Temperature [C] !Hourly
1066,7,STORAGE ROOM > 100 M2-SCH-B-SPACE FUNCTION ZN,Zone Air Relative Humidity [%] !Daily [Value,Min,Hour,Minute,Max,Hour,Minute]
1105,1,STORAGE ROOM > 100 M2-SCH-C-SPACE FUNCTION ZN,Zone Air Temperature [C] !Hourly
1106,7,STORAGE ROOM > 100 M2-SCH-C-SPACE FUNCTION ZN,Zone Air Relative Humidity [%] !Daily [Value,Min,Hour,Minute,Max,Hour,Minute]
1145,1,STORAGE ROOM > 100 M2-SCH-D-SPACE FUNCTION ZN,Zone Air Temperature [C] !Hourly
1146,7,STORAGE ROOM > 100 M2-SCH-D-SPACE FUNCTION ZN,Zone Air Relative Humidity [%] !Daily [Value,Min,Hour,Minute,Max,Hour,Minute]
1185,1,STORAGE ROOM > 100 M2-SCH-E-SPACE FUNCTION ZN,Zone Air Temperature [C] !Hourly
1186,7,STORAGE ROOM > 100 M2-SCH-E-SPACE FUNCTION ZN,Zone Air Relative Humidity [%] !Daily [Value,Min,Hour,Minute,Max,Hour,Minute]
1225,1,STORAGE ROOM > 100 M2-SCH-F-SPACE FUNCTION ZN,Zone Air Temperature [C] !Hourly
1226,7,STORAGE ROOM > 100 M2-SCH-F-SPACE FUNCTION ZN,Zone Air Relative Humidity [%] !Daily [Value,Min,Hour,Minute,Max,Hour,Minute]
1265,1,STORAGE ROOM > 100 M2-SCH-G-SPACE FUNCTION ZN,Zone Air Temperature [C] !Hourly
1266,7,STORAGE ROOM > 100 M2-SCH-G-SPACE FUNCTION ZN,Zone Air Relative Humidity [%] !Daily [Value,Min,Hour,Minute,Max,Hour,Minute]
1305,1,STORAGE ROOM > 100 M2-SCH-H-SPACE FUNCTION ZN,Zone Air Temperature [C] !Hourly
1306,7,STORAGE ROOM > 100 M2-SCH-H-SPACE FUNCTION ZN,Zone Air Relative Humidity [%] !Daily [Value,Min,Hour,Minute,Max,Hour,Minute]
1345,1,STORAGE ROOM > 100 M2-SCH-I-SPACE FUNCTION ZN,Zone Air Temperature [C] !Hourly
1346,7,STORAGE ROOM > 100 M2-SCH-I-SPACE FUNCTION ZN,Zone Air Relative Humidity [%] !Daily [Value,Min,Hour,Minute,Max,Hour,Minute]
1385,1,STORAGE ROOM > 100 M2-SCH-J-SPACE FUNCTION ZN,Zone Air Temperature [C] !Hourly
1386,7,STORAGE ROOM > 100 M2-SCH-J-SPACE FUNCTION ZN,Zone Air Relative Humidity [%] !Daily [Value,Min,Hour,Minute,Max,Hour,Minute]
1425,1,STORAGE ROOM > 100 M2-SCH-K-SPACE FUNCTION ZN,Zone Air Temperature [C] !Hourly
1426,7,STORAGE ROOM > 100 M2-SCH-K-SPACE FUNCTION ZN,Zone Air Relative Humidity [%] !Daily [Value,Min,Hour,Minute,Max,Hour,Minute]
1465,1,VEHICLE MAINTENANCE AREA-SPACE FUNCTION ZN,Zone Air Temperature [C] !Hourly
1466,7,VEHICLE MAINTENANCE AREA-SPACE FUNCTION ZN,Zone Air Relative Humidity [%] !Daily [Value,Min,Hour,Minute,Max,Hour,Minute]
1505,1,WORKSHOP-SPACE FUNCTION ZN,Zone Air Temperature [C] !Hourly
1506,7,WORKSHOP-SPACE FUNCTION ZN,Zone Air Relative Humidity [%] !Daily [Value,Min,Hour,Minute,Max,Hour,Minute]
10,1,Electricity:Facility [J] !TimeStep
1656,1,DistrictCooling:Facility [J] !TimeStep
1619,1,DistrictHeating:Facility [J] !TimeStep
End of Data Dictionary
1,FORT MCMURRAY AP ANN CLG .4% CONDNS DB=>MWB,  56.65,-111.22,  -7.00, 369.10
2,1, 7,21, 0, 1, 0.00,10.00,SummerDesignDay
8,14.218136923962174
10,56385050.63299042
1619,0.0
1656,41155287.83734198
2,1, 7,21, 0, 1,10.00,20.00,SummerDesignDay
8,14.171982153293495
10,56385050.63299042
1619,0.0
1656,39213645.89623233
2,1, 7,21, 0, 1,20.00,30.00,SummerDesignDay
8,14.125744780286427
10,56385050.63299042
1619,0.0
1656,37835209.084805358
2,1, 7,21, 0, 1,30.00,40.00,SummerDesignDay
8,14.079436086331978
10,56385050.63299042
1619,0.0
1656,36485536.903132479
2,1, 7,21, 0, 1,40.00,50.00,SummerDesignDay
8,14.033050387896898
10,56385050.63299042
1619,0.0
1656,35167315.73996841
2,1, 7,21, 0, 1,50.00,60.00,SummerDesignDay
8,13.986581233564835
10,56385050.63299042
1619,0.0
1656,33862338.51357067
2,1, 7,21, 0, 1, 0.00,60.00,SummerDesignDay
745,24.49459601796299
785,24.000000000000005
825,24.000000000000015
865,24.000000000000005
905,24.056293336848808
945,23.93987869611129
985,25.667724587754777
1025,24.495091198938089
1065,24.0
1105,23.392207557656069
1145,25.28138473799727
1185,24.095674669574746
1225,24.000000000000015
1265,24.00000000000001
1305,24.000000000000019
1345,24.045355536578865
1385,24.000005356822756
1425,25.38141669638817
1465,19.9753803265697
1505,22.803501449838348
2,1, 7,21, 0, 2, 0.00,10.00,SummerDesignDay
8,13.95555882260429
10,36819420.6035833
1619,0.0
1656,21757870.53528585
2,1, 7,21, 0, 2,10.00,20.00,SummerDesignDay
8,13.924507755336454
10,36819420.6035833
1619,0.0
1656,20929549.352655554
2,1, 7,21, 0, 2,20.00,30.00,SummerDesignDay
8,13.893416042989206
10,36819420.6035833
1619,0.0
1656,20198086.7628779
2,1, 7,21, 0, 2,30.00,40.00,SummerDesignDay
8,13.862289589689029
10,36819420.6035833
1619,0.0
1656,19478266.93049937
2,1, 7,21, 0, 2,40.00,50.00,SummerDesignDay
8,13.831134407608739
10,36819420.6035833
1619,0.0
1656,18777831.7159079
2,1, 7,21, 0, 2,50.00,60.00,SummerDesignDay
8,13.799938415548118
10,36819420.6035833
1619,0.0
1656,18086697.5594175
2,1, 7,21, 0, 2, 0.00,60.00,SummerDesignDay
745,24.233319655200004
785,24.000000000000005
825,23.999999999999998
865,24.000000000000005
905,23.607010156594133
945,23.722420261222714
985,25.400650465333468
1025,24.36888457793542
1065,24.615138360706216
1105,23.124257527320237
1145,25.14792369208568
1185,23.97140421814461
1225,24.000000000000005
1265,23.950019256274996
1305,24.00000000000001
1345,23.755220153621197
1385,23.923529633740118
1425,25.262575338091329
1465,19.491282434697565
1505,22.479308155874205
2,1, 7,21, 0, 3, 0.00,10.00,SummerDesignDay
8,13.776521671948676
10,33758308.53340376
1619,0.0
1656,17496525.344664784
2,1, 7,21, 0, 3,10.00,20.00,SummerDesignDay
8,13.753085235778466
10,33758308.53340376
1619,0.0
1656,16908835.80281803
2,1, 7,21, 0, 3,20.00,30.00,SummerDesignDay
8,13.729636002354969
10,33758308.53340376
1619,0.0
1656,16322512.302588271
2,1, 7,21, 0, 3,30.00,40.00,SummerDesignDay
8,13.706147375533054
10,33758308.53340376
1619,0.0
1656,15736724.35277161
2,1, 7,21, 0, 3,40.00,50.00,SummerDesignDay
8,13.682651961920304
10,33758308.53340376
1619,0.0
1656,15116092.849763185
2,1, 7,21, 0, 3,50.00,60.00,SummerDesignDay
8,13.659136670643687
10,33758308.53340376
1619,0.0
1656,14497020.891324463
2,1, 7,21, 0, 3, 0.00,60.00,SummerDesignDay
745,23.98586831841727
785,24.000000000000015
825,24.00000000000001
865,24.000000000000005
905,23.101691772551989
945,23.46882012121878
985,25.14104934782564
1025,24.23680802379569
1065,24.68457417844232
1105,22.86019669834239
1145,24.981598617598718
1185,23.847214551765196
1225,24.0
1265,23.84090647951881
1305,24.000000000000015
1345,23.458174865372656
1385,23.687668705895534
1425,25.150593872275853
1465,19.115804572611244
1505,22.19503501402689
2,1, 7,21, 0, 4, 0.00,10.00,SummerDesignDay
8,13.63560137410855
10,33222613.921122344
1619,0.0
1656,13600017.394613322
2,1, 7,21, 0, 4,10.00,20.00,SummerDesignDay
8,13.612040802606578
10,33222613.921122344
1619,0.0
1656,13046087.640821597
2,1, 7,21, 0, 4,20.00,30.00,SummerDesignDay
8,13.58846620506876
10,33222613.921122344
1619,0.0
1656,12557318.47543364
2,1, 7,21, 0, 4,30.00,40.00,SummerDesignDay
8,13.56487178447336
10,33222613.921122344
1619,0.0
1656,12071241.336069316
2,1, 7,21, 0, 4,40.00,50.00,SummerDesignDay
8,13.541257354069103
10,33222613.921122344
1619,0.0
1656,11587514.063592064
2,1, 7,21, 0, 4,50.00,60.00,SummerDesignDay
8,13.517617463812285
10,33222613.921122344
1619,0.0
1656,11105830.69642442
2,1, 7,21, 0, 4, 0.00,60.00,SummerDesignDay
745,23.76870062526379
785,24.00000000000001
825,24.000000000000005
865,23.980945590041985
905,22.84617382327654
945,23.248643907621859
985,24.922641145443774
1025,24.112131701162267
1065,24.47057902311991
1105,22.639652672386509
1145,24.823340962446538
1185,23.74248973120505
1225,24.000000000000005
1265,23.7509335137632
1305,24.00000000000001
1345,23.335974966142819
1385,23.440329866121848
1425,25.05679638919111
1465,18.794316564481674
1505,21.94924280370149
2,1, 7,21, 0, 5, 0.00,10.00,SummerDesignDay
8,13.50185415824011
10,33222613.921122344
1619,0.0
1656,10696988.998359522
2,1, 7,21, 0, 5,10.00,20.00,SummerDesignDay
8,13.486076034032447
10,33222613.921122344
1619,0.0
1656,10718742.155741428
2,1, 7,21, 0, 5,20.00,30.00,SummerDesignDay
8,13.470289340350983
10,33222613.921122344
1619,0.0
1656,10678023.71111926
2,1, 7,21, 0, 5,30.00,40.00,SummerDesignDay
8,13.454493322631063
10,33222613.921122344
1619,0.0
1656,10636108.04141641
2,1, 7,21, 0, 5,40.00,50.00,SummerDesignDay
8,13.438688835118548
10,33222613.921122344
1619,0.0
1656,10548643.047531363
2,1, 7,21, 0, 5,50.00,60.00,SummerDesignDay
8,13.422888173889437
10,33222613.921122344
1619,0.0
1656,10379819.81729617
2,1, 7,21, 0, 5, 0.00,60.00,SummerDesignDay
745,23.570657772592285
785,24.000000000000005
825,24.00000000000001
865,23.901890318876157
905,22.678398316121834
945,23.093470749217948
985,24.743238108128084
1025,23.990190012276487
1065,24.326497634792049
1105,22.622070497988234
1145,24.77560102826749
1185,23.6463421435429
1225,24.00000000000001
1265,23.668894467156539
1305,24.000000000000005
1345,23.23895155731772
1385,23.25283632951087
1425,24.969125359830227
1465,18.515507049770567
1505,21.81804622672901
2,1, 7,21, 0, 6, 0.00,10.00,SummerDesignDay
8,13.438688835118548
10,38159407.40685306
1619,0.0
1656,10431153.841875166
2,1, 7,21, 0, 6,10.00,20.00,SummerDesignDay
8,13.454493322631063
10,38159407.40685306
1619,0.0
1656,10405636.570760679
2,1, 7,21, 0, 6,20.00,30.00,SummerDesignDay
8,13.470289340350983
10,38159407.40685306
1619,0.0
1656,10331451.933147774
2,1, 7,21, 0, 6,30.00,40.00,SummerDesignDay
8,13.486076034032447
10,38159407.40685306
1619,0.0
1656,10231385.124568291
2,1, 7,21, 0, 6,40.00,50.00,SummerDesignDay
8,13.50185415824011
10,38159407.40685306
1619,0.0
1656,10127017.646732891
2,1, 7,21, 0, 6,50.00,60.00,SummerDesignDay
8,13.517617463812285
10,38159407.40685306
1619,0.0
1656,10040460.583212223
2,1, 7,21, 0, 6, 0.00,60.00,SummerDesignDay
745,23.453263418249404
785,24.00000000000001
825,24.000000000000019
865,23.951204277157577
905,22.71529167137099
945,23.323309584416085
985,24.7502438130568
1025,23.90499599124314
1065,24.24436653208231
1105,23.005931303457648
1145,25.16441681654925
1185,23.580083743878047
1225,24.000000000000005
1265,23.615831599765277
1305,24.000000000000015
1345,23.175034207904174
1385,23.458514641113408
1425,24.929252258887414
1465,18.45222575834917
1505,22.086838535853237
2,1, 7,21, 0, 7, 0.00,10.00,SummerDesignDay
8,13.572736920571789
10,47592849.17113823
1619,0.0
1656,12930360.963774482
2,1, 7,21, 0, 7,10.00,20.00,SummerDesignDay
8,13.627748229152554
10,47592849.17113823
1619,0.0
1656,13960660.412231427
2,1, 7,21, 0, 7,20.00,30.00,SummerDesignDay
8,13.682651961920304
10,47592849.17113823
1619,0.0
1656,14410264.53625631
2,1, 7,21, 0, 7,30.00,40.00,SummerDesignDay
8,13.737448093244995
10,47592849.17113823
1619,0.0
1656,18218056.903066875
2,1, 7,21, 0, 7,40.00,50.00,SummerDesignDay
8,13.792137011831216
10,47592849.17113823
1619,0.0
1656,21339892.60192448
2,1, 7,21, 0, 7,50.00,60.00,SummerDesignDay
8,13.846719282840333
10,47592849.17113823
1619,0.0
1656,22175730.649558229
2,1, 7,21, 0, 7, 0.00,60.00,SummerDesignDay
745,23.47365153123745
785,24.000000000000015
825,24.000000000000015
865,23.999929155771086
905,23.010146474342205
945,23.869446706912865
985,25.06018855789502
1025,23.896284133210789
1065,24.25548409341764
1105,23.256536094878969
1145,25.674670896787217
1185,23.579667005098729
1225,24.000000000000015
1265,23.74399480726855
1305,24.00000000000001
1345,23.181518724494614
1385,23.92937689275381
1425,25.003176275504189
1465,18.7901018624936
1505,22.552183321916229
2,1, 7,21, 0, 8, 0.00,10.00,SummerDesignDay
8,13.978831900527043
10,71742484.34444049
1619,19457349.573665795
1656,68115341.25128754
2,1, 7,21, 0, 8,10.00,20.00,SummerDesignDay
8,14.110321014287419
10,71742484.34444049
1619,5461315.772122421
1656,47241511.98112476
2,1, 7,21, 0, 8,20.00,30.00,SummerDesignDay
8,14.241191509616986
10,71742484.34444049
1619,6034781.73154921
1656,67685910.71247459
2,1, 7,21, 0, 8,30.00,40.00,SummerDesignDay
8,14.371447531304272
10,71742484.34444049
1619,0.0
1656,60940313.867681089
2,1, 7,21, 0, 8,40.00,50.00,SummerDesignDay
8,14.501093766564925
10,71742484.34444049
1619,0.0
1656,65742593.97646707
2,1, 7,21, 0, 8,50.00,60.00,SummerDesignDay
8,14.630134792273804
10,71742484.34444049
1619,0.0
1656,73675185.50629883
2,1, 7,21, 0, 8, 0.00,60.00,SummerDesignDay
745,23.704578702677343
785,24.0
825,24.0
865,23.999999999999998
905,23.595099319234877
945,23.9999999996801
985,25.60907950519852
1025,23.99293808504206
1065,24.396591864772238
1105,23.75512734350447
1145,23.93082328387617
1185,23.68170062848806
1225,24.000000000000005
1265,23.96811116716361
1305,24.000000000000005
1345,23.29593110879735
1385,23.999999999968826
1425,25.196139263278935
1465,20.125899818452408
1505,23.444737334364814
2,1, 7,21, 0, 9, 0.00,10.00,SummerDesignDay
8,14.773641492809972
10,109118831.51915506
1619,27450049.645311294
1656,107420422.8840545
2,1, 7,21, 0, 9,10.00,20.00,SummerDesignDay
8,14.91640948124148
10,109118831.51915506
1619,0.0
1656,108774342.66726853
2,1, 7,21, 0, 9,20.00,30.00,SummerDesignDay
8,15.05843890714102
10,109118831.51915506
1619,6277507.162202281
1656,118385268.82878584
2,1, 7,21, 0, 9,30.00,40.00,SummerDesignDay
8,15.199735893563798
10,109118831.51915506
1619,2139229.0708663968
1656,133478299.58295119
2,1, 7,21, 0, 9,40.00,50.00,SummerDesignDay
8,15.340306256439395
10,109118831.51915506
1619,0.0
1656,137585034.07186444
2,1, 7,21, 0, 9,50.00,60.00,SummerDesignDay
8,15.48015101768072
10,109118831.51915506
1619,0.0
1656,146138345.48101238
2,1, 7,21, 0, 9, 0.00,60.00,SummerDesignDay
745,23.99797806370569
785,23.999999999999998
825,24.00000000000001
865,24.000000000000019
905,24.590048226831674
945,24.000000000000015
985,26.392356014015094
1025,23.999999999999976
1065,23.926175533215888
1105,23.999999960696134
1145,23.999999999996637
1185,23.973339955606109
1225,24.00000000000001
1265,23.999999999994047
1305,24.0
1345,23.55613348175325
1385,24.000000000000015
1425,25.502864051178976
1465,22.17390335507591
1505,23.999901332366418
2,1, 7,21, 0,10, 0.00,10.00,SummerDesignDay
8,15.60467292907716
10,120957244.05280906
1619,0.0
1656,157800490.40682904
2,1, 7,21, 0,10,10.00,20.00,SummerDesignDay
8,15.72862731650033
10,120957244.05280906
1619,0.0
1656,164993680.61221264
2,1, 7,21, 0,10,20.00,30.00,SummerDesignDay
8,15.852017409284228
10,120957244.05280906
1619,0.0
1656,171617590.29962144
2,1, 7,21, 0,10,30.00,40.00,SummerDesignDay
8,15.974848118364367
10,120957244.05280906
1619,0.0
1656,178219337.0524237
2,1, 7,21, 0,10,40.00,50.00,SummerDesignDay
8,16.097123145563505
10,120957244.05280906
1619,0.0
1656,191000131.0393491
2,1, 7,21, 0,10,50.00,60.00,SummerDesignDay
8,16.218846351168599
10,120957244.05280906
1619,0.0
1656,201447747.03253544
2,1, 7,21, 0,10, 0.00,60.00,SummerDesignDay
745,23.999999999999998
785,24.0
825,24.000000000000015
865,24.000000000000005
905,25.724313410968518
945,23.999999999999987
985,27.242766374587548
1025,24.0
1065,23.99999999976394
1105,24.000000000000015
1145,24.00000000000001
1185,23.999999999990448
1225,24.0
1265,24.0
1305,24.000000000000005
1345,23.897379818564106
1385,24.000000000000015
1425,25.894043149903408
1465,23.511984771261579
1505,23.999999999999976
2,1, 7,21, 0,11, 0.00,10.00,SummerDesignDay
8,16.325793027093189
10,126118618.42043853
1619,0.0
1656,217587762.64096544
2,1, 7,21, 0,11,10.00,20.00,SummerDesignDay
8,16.432322158488288
10,126118618.42043853
1619,0.0
1656,228163374.31812797
2,1, 7,21, 0,11,20.00,30.00,SummerDesignDay
8,16.538424180249178
10,126118618.42043853
1619,0.0
1656,238484683.7905263
2,1, 7,21, 0,11,30.00,40.00,SummerDesignDay
8,16.644108396469087
10,126118618.42043853
1619,0.0
1656,248765622.62581847
2,1, 7,21, 0,11,40.00,50.00,SummerDesignDay
8,16.749376736593655
10,126118618.42043853
1619,0.0
1656,258971312.1801778
2,1, 7,21, 0,11,50.00,60.00,SummerDesignDay
8,16.854232613237156
10,126118618.42043853
1619,0.0
1656,269182479.4991529
2,1, 7,21, 0,11, 0.00,60.00,SummerDesignDay
745,24.00000000000003
785,24.000000000000005
825,24.0
865,24.000000000000015
905,26.82613796051766
945,24.00000000000004
985,28.15063442696564
1025,24.00000000000001
1065,24.00000000000001
1105,24.000000000000019
1145,24.000000000000026
1185,24.00000000000001
1225,24.000000000000015
1265,24.0
1305,24.0
1345,24.31024995165134
1385,24.0
1425,26.283705297553323
1465,23.99704553096784
1505,24.0
2,1, 7,21, 0,12, 0.00,10.00,SummerDesignDay
8,16.92390823520069
10,124832651.24193663
1619,0.0
1656,275977115.4584453
2,1, 7,21, 0,12,10.00,20.00,SummerDesignDay
8,16.99340178950456
10,124832651.24193663
1619,0.0
1656,283205024.2702486
2,1, 7,21, 0,12,20.00,30.00,SummerDesignDay
8,17.06272006743463
10,124832651.24193663
1619,0.0
1656,290509373.4050021
2,1, 7,21, 0,12,30.00,40.00,SummerDesignDay
8,17.131853229172639
10,124832651.24193663
1619,0.0
1656,297774382.4972322
2,1, 7,21, 0,12,40.00,50.00,SummerDesignDay
8,17.200807172194087
10,124832651.24193663
1619,0.0
1656,305038203.76453927
2,1, 7,21, 0,12,50.00,60.00,SummerDesignDay
8,17.269582116758607
10,124832651.24193663
1619,0.0
1656,312247683.9031553
2,1, 7,21, 0,12, 0.00,60.00,SummerDesignDay
745,24.00000000000001
785,24.00000000000001
825,23.999999999999998
865,24.00000000000001
905,27.71866356688307
945,24.000000000000033
985,28.980198452651739
1025,24.000000000000019
1065,24.00000000000001
1105,24.000000000000019
1145,24.000000000000047
1185,24.000000000000015
1225,24.000000000000015
1265,24.0
1305,24.00000000000001
1345,24.718429606267095
1385,24.00000000000001
1425,26.537108899511229
1465,23.999992268241046
1505,23.999999999999976
2,1, 7,21, 0,13, 0.00,10.00,SummerDesignDay
8,17.32447360221357
10,121640991.74523473
1619,0.0
1656,316827228.4317579
2,1, 7,21, 0,13,10.00,20.00,SummerDesignDay
8,17.379251291230806
10,121640991.74523473
1619,0.0
1656,322489586.7953514
2,1, 7,21, 0,13,20.00,30.00,SummerDesignDay
8,17.433921312061729
10,121640991.74523473
1619,0.0
1656,328153946.8712982
2,1, 7,21, 0,13,30.00,40.00,SummerDesignDay
8,17.488473222557489
10,121640991.74523473
1619,0.0
1656,333825028.0597737
2,1, 7,21, 0,13,40.00,50.00,SummerDesignDay
8,17.542913447755134
10,121640991.74523473
1619,0.0
1656,339409207.16309437
2,1, 7,21, 0,13,50.00,60.00,SummerDesignDay
8,17.59724609886134
10,121640991.74523473
1619,0.0
1656,344817215.742983
2,1, 7,21, 0,13, 0.00,60.00,SummerDesignDay
745,24.00000000000001
785,24.000000000000005
825,24.000000000000015
865,24.000000000000005
905,28.40082327186951
945,24.000000000000044
985,29.60835318698693
1025,24.00000000000001
1065,24.00000000000003
1105,23.99999999999997
1145,24.00000000000004
1185,24.00000000000001
1225,24.000000000000005
1265,24.0
1305,24.0
1345,24.959607368054717
1385,24.0
1425,26.70978853277045
1465,23.99999998102461
1505,23.99999999999999
2,1, 7,21, 0,14, 0.00,10.00,SummerDesignDay
8,17.6311450462694
10,121640991.74523473
1619,0.0
1656,348358647.2179184
2,1, 7,21, 0,14,10.00,20.00,SummerDesignDay
8,17.665000449016245
10,121640991.74523473
1619,0.0
1656,351927850.38822409
2,1, 7,21, 0,14,20.00,30.00,SummerDesignDay
8,17.698812743128934
10,121640991.74523473
1619,0.0
1656,355565083.33043077
2,1, 7,21, 0,14,30.00,40.00,SummerDesignDay
8,17.732582050940107
10,121640991.74523473
1619,0.0
1656,359310650.544263
2,1, 7,21, 0,14,40.00,50.00,SummerDesignDay
8,17.766307345121004
10,121640991.74523473
1619,0.0
1656,363198946.2876178
2,1, 7,21, 0,14,50.00,60.00,SummerDesignDay
8,17.79999023167558
10,121640991.74523473
1619,0.0
1656,367230917.836519
2,1, 7,21, 0,14, 0.00,60.00,SummerDesignDay
745,24.00000000000001
785,24.000000000000005
825,24.00000000000001
865,24.000000000000015
905,28.89800990262589
945,24.000000000000026
985,30.047023015768987
1025,24.00000000000001
1065,24.0
1105,24.00000000000003
1145,24.00000000000001
1185,24.00000000000001
1225,24.000000000000015
1265,24.00000000000001
1305,24.00000000000001
1345,25.11388371534832
1385,24.0
1425,26.842093630739386
1465,23.999999999956004
1505,24.00000000000001
2,1, 7,21, 0,15, 0.00,10.00,SummerDesignDay
8,17.79999023167558
10,122016128.02834499
1619,0.0
1656,513479384.5077501
2,1, 7,21, 0,15,10.00,20.00,SummerDesignDay
8,17.79999023167558
10,122016128.02834499
1619,0.0
1656,396224256.8417395
2,1, 7,21, 0,15,20.00,30.00,SummerDesignDay
8,17.79999023167558
10,122016128.02834499
1619,0.0
1656,447480382.60238507
2,1, 7,21, 0,15,30.00,40.00,SummerDesignDay
8,17.79999023167558
10,122016128.02834499
1619,0.0
1656,400370034.4430657
2,1, 7,21, 0,15,40.00,50.00,SummerDesignDay
8,17.79999023167558
10,122016128.02834499
1619,0.0
1656,403481265.0023727
2,1, 7,21, 0,15,50.00,60.00,SummerDesignDay
8,17.79999023167558
10,122016128.02834499
1619,0.0
1656,404205550.39871779
2,1, 7,21, 0,15, 0.00,60.00,SummerDesignDay
745,24.00000000000003
785,24.00000000000001
825,24.000000000000019
865,24.0
905,23.850588707090993
945,23.99999999999999
985,30.244691021618807
1025,24.000000000000005
1065,24.00000000000001
1105,24.000000000000015
1145,24.000000000000019
1185,24.000000000000005
1225,24.0
1265,24.0
1305,24.00000000000001
1345,23.915375963818425
1385,24.000000000000005
1425,26.918045955799206
1465,23.999999999999998
1505,24.0
2,1, 7,21, 0,16, 0.00,10.00,SummerDesignDay
8,17.759562446305357
10,131199464.23888359
1619,0.0
1656,407217432.17799767
2,1, 7,21, 0,16,10.00,20.00,SummerDesignDay
8,17.71907809634183
10,131199464.23888359
1619,0.0
1656,404507381.950853
2,1, 7,21, 0,16,20.00,30.00,SummerDesignDay
8,17.67853788661001
10,131199464.23888359
1619,0.0
1656,401037621.18133559
2,1, 7,21, 0,16,30.00,40.00,SummerDesignDay
8,17.63791796367351
10,131199464.23888359
1619,0.0
1656,397359615.45762547
2,1, 7,21, 0,16,40.00,50.00,SummerDesignDay
8,17.59724609886134
10,131199464.23888359
1619,0.0
1656,393515851.4387651
2,1, 7,21, 0,16,50.00,60.00,SummerDesignDay
8,17.55650676726033
10,131199464.23888359
1619,0.0
1656,389545315.50766208
2,1, 7,21, 0,16, 0.00,60.00,SummerDesignDay
745,24.000000000000044
785,24.000000000000019
825,24.00000000000003
865,24.000000000000019
905,24.000000000000019
945,24.000000000000026
985,30.17631133682595
1025,24.00000000000001
1065,24.00000000000004
1105,24.00000000000001
1145,24.00000000000001
1185,24.000000000000015
1225,24.00000000000001
1265,24.0
1305,24.000000000000005
1345,24.0
1385,24.000000000000015
1425,26.934546082844866
1465,24.0
1505,23.99999999999999
2,1, 7,21, 0,17, 0.00,10.00,SummerDesignDay
8,17.50209486331892
10,130137828.55768162
1619,0.0
1656,384148935.5651796
2,1, 7,21, 0,17,10.00,20.00,SummerDesignDay
8,17.447570789624618
10,130137828.55768162
1619,0.0
1656,378820290.12014368
2,1, 7,21, 0,17,20.00,30.00,SummerDesignDay
8,17.392929544208135
10,130137828.55768162
1619,0.0
1656,373468073.59779748
2,1, 7,21, 0,17,30.00,40.00,SummerDesignDay
8,17.33818013976614
10,130137828.55768162
1619,0.0
1656,368065406.6388507
2,1, 7,21, 0,17,40.00,50.00,SummerDesignDay
8,17.283317298559309
10,130137828.55768162
1619,0.0
1656,362580823.03836336
2,1, 7,21, 0,17,50.00,60.00,SummerDesignDay
8,17.22833552437677
10,130137828.55768162
1619,0.0
1656,356980351.4110034
2,1, 7,21, 0,17, 0.00,60.00,SummerDesignDay
745,24.000000000000019
785,24.0
825,24.00000000000001
865,24.00000000000001
905,24.000000000000026
945,24.000000000000019
985,29.909955947722467
1025,24.000000000000015
1065,24.000000000000019
1105,24.00000000000004
1145,24.0
1185,24.00000000000001
1225,24.000000000000019
1265,24.000000000000005
1305,24.000000000000005
1345,24.0
1385,23.999999999999984
1425,26.914823714207757
1465,24.000000000000015
1505,24.000000000000015
2,1, 7,21, 0,18, 0.00,10.00,SummerDesignDay
8,17.159453019160176
10,123670993.29468563
1619,0.0
1656,346343786.2548958
2,1, 7,21, 0,18,10.00,20.00,SummerDesignDay
8,17.090391773337136
10,123670993.29468563
1619,0.0
1656,338997801.668317
2,1, 7,21, 0,18,20.00,30.00,SummerDesignDay
8,17.021151077964786
10,123670993.29468563
1619,0.0
1656,331577359.3283976
2,1, 7,21, 0,18,30.00,40.00,SummerDesignDay
8,16.951729380464653
10,123670993.29468563
1619,0.0
1656,324170757.6291419
2,1, 7,21, 0,18,40.00,50.00,SummerDesignDay
8,16.882126503829249
10,123670993.29468563
1619,0.0
1656,316762202.6254226
2,1, 7,21, 0,18,50.00,60.00,SummerDesignDay
8,16.812341807494034
10,123670993.29468563
1619,0.0
1656,309285921.6421858
2,1, 7,21, 0,18, 0.00,60.00,SummerDesignDay
745,24.00000000000006
785,24.00000000000001
825,24.00000000000003
865,24.00000000000001
905,24.000000000000005
945,24.000000000000033
985,29.50516264105478
1025,24.0
1065,24.000000000000015
1105,24.00000000000003
1145,24.0
1185,24.00000000000001
1225,24.000000000000015
1265,24.0
1305,24.0
1345,24.0
1385,24.000000000000047
1425,26.847922611357349
1465,24.000000000000015
1505,24.00000000000004
2,1, 7,21, 0,19, 0.00,10.00,SummerDesignDay
8,16.707321072823203
10,116628728.8912674
1619,0.0
1656,292841574.50013616
2,1, 7,21, 0,19,10.00,20.00,SummerDesignDay
8,16.601881826644556
10,116628728.8912674
1619,0.0
1656,282148129.6972013
2,1, 7,21, 0,19,20.00,30.00,SummerDesignDay
8,16.496030555252849
10,116628728.8912674
1619,0.0
1656,271355624.1243045
2,1, 7,21, 0,19,30.00,40.00,SummerDesignDay
8,16.389760181474104
10,116628728.8912674
1619,0.0
1656,260532109.30309854
2,1, 7,21, 0,19,40.00,50.00,SummerDesignDay
8,16.283067654262039
10,116628728.8912674
1619,0.0
1656,249332028.7830055
2,1, 7,21, 0,19,50.00,60.00,SummerDesignDay
8,16.17595057957811
10,116628728.8912674
1619,0.0
1656,238063183.45504687
2,1, 7,21, 0,19, 0.00,60.00,SummerDesignDay
745,24.000000000000019
785,24.000000000000005
825,24.00000000000001
865,24.000000000000015
905,24.000000000000015
945,24.000000000000005
985,28.89462156676036
1025,24.000000000000005
1065,24.00000000000001
1105,23.99999999999999
1145,24.000000000000019
1185,24.00000000000001
1225,24.000000000000026
1265,24.0
1305,24.000000000000005
1345,24.000000000000005
1385,24.0
1425,26.674380126227587
1465,24.0
1505,24.000000000000015
2,1, 7,21, 0,20, 0.00,10.00,SummerDesignDay
8,16.097123145563505
10,122407488.53254597
1619,0.0
1656,221448355.86408807
2,1, 7,21, 0,20,10.00,20.00,SummerDesignDay
8,16.018070242471564
10,122407488.53254597
1619,0.0
1656,216308345.4130984
2,1, 7,21, 0,20,20.00,30.00,SummerDesignDay
8,15.938779752340516
10,122407488.53254597
1619,0.0
1656,210633797.47177653
2,1, 7,21, 0,20,30.00,40.00,SummerDesignDay
8,15.85926152575189
10,122407488.53254597
1619,0.0
1656,204749766.24329654
2,1, 7,21, 0,20,40.00,50.00,SummerDesignDay
8,15.779503718563929
10,122407488.53254597
1619,0.0
1656,198622457.8369211
2,1, 7,21, 0,20,50.00,60.00,SummerDesignDay
8,15.699515709672767
10,122407488.53254597
1619,0.0
1656,192197633.33286727
2,1, 7,21, 0,20, 0.00,60.00,SummerDesignDay
745,24.000000000000019
785,24.000000000000015
825,24.00000000000003
865,24.00000000000001
905,24.000000000000005
945,24.000000000000019
985,28.101443572418345
1025,24.000000000000005
1065,24.000000000000026
1105,24.00000000000001
1145,24.00000000000001
1185,24.515438637845745
1225,24.000000000000019
1265,24.00000000000001
1305,24.0
1345,24.00000000000001
1385,24.0
1425,26.420054634233609
1465,23.711817189720539
1505,24.000000000000015
2,1, 7,21, 0,21, 0.00,10.00,SummerDesignDay
8,15.63389147320404
10,120050528.86761208
1619,0.0
1656,185129709.72127346
2,1, 7,21, 0,21,10.00,20.00,SummerDesignDay
8,15.56810827419793
10,120050528.86761208
1619,0.0
1656,178484227.66005779
2,1, 7,21, 0,21,20.00,30.00,SummerDesignDay
8,15.502170882753524
10,120050528.86761208
1619,0.0
1656,171780670.13413159
2,1, 7,21, 0,21,30.00,40.00,SummerDesignDay
8,15.436068032613852
10,120050528.86761208
1619,0.0
1656,165109462.0851264
2,1, 7,21, 0,21,40.00,50.00,SummerDesignDay
8,15.369804371206009
10,120050528.86761208
1619,0.0
1656,159023500.27663455
2,1, 7,21, 0,21,50.00,60.00,SummerDesignDay