Program Version,EnergyPlus, Version 8.9.0-eba93e8e1b, YMD=2019.04.04 17:58
1,5,Environment Title[],Latitude[deg],Longitude[deg],Time Zone[],Elevation[m]
2,8,Day of Simulation[],Month[],Day of Month[],DST Indicator[1=yes 0=no],Hour[],StartMinute[],EndMinute[],DayType
3,5,Cumulative Day of Simulation[],Month[],Day of Month[],DST Indicator[1=yes 0=no],DayType  ! When Daily Report Variables Requested
4,2,Cumulative Days of Simulation[],Month[]  ! When Monthly Report Variables Requested
5,1,Cumulative Days of Simulation[] ! When Run Period Report Variables Requested
6,1,Calendar Year of Simulation[] ! When Annual Report Variables Requested
7,9,Environment,Site Outdoor Air Drybulb Temperature [C] !Monthly [Value,Min,Day,Hour,Minute,Max,Day,Hour,Minute]
8,1,Environment,Site Outdoor Air Wetbulb Temperature [C] !TimeStep
357,1,HOSPITAL - EMERGENCY-SPACE FUNCTION ZN,Zone Air Temperature [C] !Hourly
358,7,HOSPITAL - EMERGENCY-SPACE FUNCTION ZN,Zone Air Relative Humidity [%] !Daily [Value,Min,Hour,Minute,Max,Hour,Minute]
397,1,HOSPITAL - EXAM-SPACE FUNCTION ZN,Zone Air Temperature [C] !Hourly
398,7,HOSPITAL - EXAM-SPACE FUNCTION ZN,Zone Air Relative Humidity [%] !Daily [Value,Min,Hour,Minute,Max,Hour,Minute]
437,1,HOSPITAL - LAUNDRY/WASHING-SPACE FUNCTION ZN,Zone Air Temperature [C] !Hourly
438,7,HOSPITAL - LAUNDRY/WASHING-SPACE FUNCTION ZN,Zone Air Relative Humidity [%] !Daily [Value,Min,Hour,Minute,Max,Hour,Minute]
477,1,HOSPITAL - LOUNGE/RECREATION-SPACE FUNCTION ZN,Zone Air Temperature [C] !Hourly
478,7,HOSPITAL - LOUNGE/RECREATION-SPACE FUNCTION ZN,Zone Air Relative Humidity [%] !Daily [Value,Min,Hour,Minute,Max,Hour,Minute]
517,1,HOSPITAL - MEDICAL SUPPLY-SPACE FUNCTION ZN,Zone Air Temperature [C] !Hourly
518,7,HOSPITAL - MEDICAL SUPPLY-SPACE FUNCTION ZN,Zone Air Relative Humidity [%] !Daily [Value,Min,Hour,Minute,Max,Hour,Minute]
10,1,Electricity:Facility [J] !TimeStep
668,1,DistrictCooling:Facility [J] !TimeStep
631,1,DistrictHeating:Facility [J] !TimeStep
End of Data Dictionary
1,FORT MCMURRAY AP ANN CLG .4% CONDNS DB=>MWB,  56.65,-111.22,  -7.00, 369.10
2,1, 7,21, 0, 1, 0.00,10.00,SummerDesignDay
8,14.218136923962174
10,76988734.2559647
631,0.0
668,21828103.387055469
2,1, 7,21, 0, 1,10.00,20.00,SummerDesignDay
8,14.171982153293495
10,76988734.2559647
631,0.0
668,20061754.742389956
2,1, 7,21, 0, 1,20.00,30.00,SummerDesignDay
8,14.125744780286427
10,76988734.2559647
631,0.0
668,18339852.95725087
2,1, 7,21, 0, 1,30.00,40.00,SummerDesignDay
8,14.079436086331978
10,76988734.2559647
631,0.0
668,16620094.072234571
2,1, 7,21, 0, 1,40.00,50.00,SummerDesignDay
8,14.033050387896898
10,76988734.2559647
631,0.0
668,14908337.129377325
2,1, 7,21, 0, 1,50.00,60.00,SummerDesignDay
8,13.986581233564835
10,76988734.2559647
631,0.0
668,13200867.141686582
2,1, 7,21, 0, 1, 0.00,60.00,SummerDesignDay
357,24.000000000000015
397,20.971810112583865
437,20.401995434776848
477,24.000000000000019
517,24.0
2,1, 7,21, 0, 2, 0.00,10.00,SummerDesignDay
8,13.95555882260429
10,71363781.07090205
631,0.0
668,10975600.050253947
2,1, 7,21, 0, 2,10.00,20.00,SummerDesignDay
8,13.924507755336454
10,71363781.07090205
631,0.0
668,9963435.384655547
2,1, 7,21, 0, 2,20.00,30.00,SummerDesignDay
8,13.893416042989206
10,71363781.07090205
631,0.0
668,8931063.662054478
2,1, 7,21, 0, 2,30.00,40.00,SummerDesignDay
8,13.862289589689029
10,71363781.07090205
631,0.0
668,7900550.079740126
2,1, 7,21, 0, 2,40.00,50.00,SummerDesignDay
8,13.831134407608739
10,71363781.07090205
631,0.0
668,6872800.572210691
2,1, 7,21, 0, 2,50.00,60.00,SummerDesignDay
8,13.799938415548118
10,71363781.07090205
631,0.0
668,5847071.840728374
2,1, 7,21, 0, 2, 0.00,60.00,SummerDesignDay
357,24.000000000000047
397,20.546405650257225
437,19.926158030834299
477,23.230377148115179
517,24.0
2,1, 7,21, 0, 3, 0.00,10.00,SummerDesignDay
8,13.776521671948676
10,65738827.88583943
631,0.0
668,5022178.601508435
2,1, 7,21, 0, 3,10.00,20.00,SummerDesignDay
8,13.753085235778466
10,65738827.88583943
631,0.0
668,4156950.1820853475
2,1, 7,21, 0, 3,20.00,30.00,SummerDesignDay
8,13.729636002354969
10,65738827.88583943
631,0.0
668,3274793.756132876
2,1, 7,21, 0, 3,30.00,40.00,SummerDesignDay
8,13.706147375533054
10,65738827.88583943
631,0.0
668,2625857.97989777
2,1, 7,21, 0, 3,40.00,50.00,SummerDesignDay
8,13.682651961920304
10,65738827.88583943
631,0.0
668,2008862.198748743
2,1, 7,21, 0, 3,50.00,60.00,SummerDesignDay
8,13.659136670643687
10,65738827.88583943
631,0.0
668,1402305.4170615818
2,1, 7,21, 0, 3, 0.00,60.00,SummerDesignDay
357,23.999999999999984
397,20.203895554566356
437,19.52442146258842
477,21.53376314610273
517,23.98536102078958
2,1, 7,21, 0, 4, 0.00,10.00,SummerDesignDay
8,13.63560137410855
10,65738827.88583943
631,0.0
668,806088.348359431
2,1, 7,21, 0, 4,10.00,20.00,SummerDesignDay
8,13.612040802606578
10,65738827.88583943
631,0.0
668,218742.01243879219
2,1, 7,21, 0, 4,20.00,30.00,SummerDesignDay
8,13.58846620506876
10,65738827.88583943
631,0.0
668,0.0
2,1, 7,21, 0, 4,30.00,40.00,SummerDesignDay
8,13.56487178447336
10,65738827.88583943
631,0.0
668,0.0
2,1, 7,21, 0, 4,40.00,50.00,SummerDesignDay
8,13.541257354069103
10,65738827.88583943
631,0.0
668,0.0
2,1, 7,21, 0, 4,50.00,60.00,SummerDesignDay
8,13.517617463812285
10,65738827.88583943
631,0.0
668,0.0
2,1, 7,21, 0, 4, 0.00,60.00,SummerDesignDay
357,23.96608761667998
397,19.9209889287647
437,19.174266348540557
477,20.49082231172061
517,23.820510756166795
2,1, 7,21, 0, 5, 0.00,10.00,SummerDesignDay
8,13.50185415824011
10,65738827.88583943
631,0.0
668,0.0
2,1, 7,21, 0, 5,10.00,20.00,SummerDesignDay
8,13.486076034032447
10,65738827.88583943
631,0.0
668,0.0
2,1, 7,21, 0, 5,20.00,30.00,SummerDesignDay
8,13.470289340350983
10,65738827.88583943
631,0.0
668,0.0
2,1, 7,21, 0, 5,30.00,40.00,SummerDesignDay
8,13.454493322631063
10,65738827.88583943
631,0.0
668,0.0
2,1, 7,21, 0, 5,40.00,50.00,SummerDesignDay
8,13.438688835118548
10,65738827.88583943
631,0.0
668,0.0
2,1, 7,21, 0, 5,50.00,60.00,SummerDesignDay
8,13.422888173889437
10,65738827.88583943
631,0.0
668,0.0
2,1, 7,21, 0, 5, 0.00,60.00,SummerDesignDay
357,23.77094468063463
397,19.688216272033878
437,18.89467455092623
477,20.06936819948885
517,23.603041783855507
2,1, 7,21, 0, 6, 0.00,10.00,SummerDesignDay
8,13.438688835118548
10,65738827.88583943
631,0.0
668,0.0
2,1, 7,21, 0, 6,10.00,20.00,SummerDesignDay
8,13.454493322631063
10,65738827.88583943
631,0.0
668,0.0
2,1, 7,21, 0, 6,20.00,30.00,SummerDesignDay
8,13.470289340350983
10,65738827.88583943
631,0.0
668,0.0
2,1, 7,21, 0, 6,30.00,40.00,SummerDesignDay
8,13.486076034032447
10,65738827.88583943
631,0.0
668,0.0
2,1, 7,21, 0, 6,40.00,50.00,SummerDesignDay
8,13.50185415824011
10,65738827.88583943
631,0.0
668,0.0
2,1, 7,21, 0, 6,50.00,60.00,SummerDesignDay
8,13.517617463812285
10,65738827.88583943
631,0.0
668,0.0
2,1, 7,21, 0, 6, 0.00,60.00,SummerDesignDay
357,23.68499976294955
397,19.57257383412254
437,18.779285046787366
477,19.887305039111568
517,23.49520321910145
2,1, 7,21, 0, 7, 0.00,10.00,SummerDesignDay
8,13.572736920571789
10,65738827.88583943
631,0.0
668,0.0
2,1, 7,21, 0, 7,10.00,20.00,SummerDesignDay
8,13.627748229152554
10,65738827.88583943
631,0.0
668,0.0
2,1, 7,21, 0, 7,20.00,30.00,SummerDesignDay
8,13.682651961920304
10,65738827.88583943
631,0.0
668,0.0
2,1, 7,21, 0, 7,30.00,40.00,SummerDesignDay
8,13.737448093244995
10,65738827.88583943
631,0.0
668,0.0
2,1, 7,21, 0, 7,40.00,50.00,SummerDesignDay
8,13.792137011831216
10,65738827.88583943
631,0.0
668,3273574.708887278
2,1, 7,21, 0, 7,50.00,60.00,SummerDesignDay
8,13.846719282840333
10,65738827.88583943
631,0.0
668,3615565.8165610146
2,1, 7,21, 0, 7, 0.00,60.00,SummerDesignDay
357,23.909356184370297
397,19.72779848198899
437,19.001009854705477
477,19.99193249646808
517,23.64989660972716
2,1, 7,21, 0, 8, 0.00,10.00,SummerDesignDay
8,13.978831900527043
10,65738827.88583943
631,14396125.602922086
668,6622580.3326627849
2,1, 7,21, 0, 8,10.00,20.00,SummerDesignDay
8,14.110321014287419
10,65738827.88583943
631,868367.8258690531
668,9434765.43712349
2,1, 7,21, 0, 8,20.00,30.00,SummerDesignDay
8,14.241191509616986
10,65738827.88583943
631,3006314.8802329536
668,14887026.820673833
2,1, 7,21, 0, 8,30.00,40.00,SummerDesignDay
8,14.371447531304272
10,65738827.88583943
631,0.0
668,19614989.709530586
2,1, 7,21, 0, 8,40.00,50.00,SummerDesignDay
8,14.501093766564925
10,65738827.88583943
631,0.0
668,22864580.54542018
2,1, 7,21, 0, 8,50.00,60.00,SummerDesignDay
8,14.630134792273804
10,65738827.88583943
631,0.0
668,26940627.9341887
2,1, 7,21, 0, 8, 0.00,60.00,SummerDesignDay
357,23.99999728340406
397,20.352943413251567
437,20.164597082989944
477,20.492216862216254
517,23.966104928337029
2,1, 7,21, 0, 9, 0.00,10.00,SummerDesignDay
8,14.773641492809972
10,94037967.36468478
631,39669607.166121829
668,31323960.54464638
2,1, 7,21, 0, 9,10.00,20.00,SummerDesignDay
8,14.91640948124148
10,94037967.36468478
631,0.0
668,35924414.567122917
2,1, 7,21, 0, 9,20.00,30.00,SummerDesignDay
8,15.05843890714102
10,94037967.36468478
631,0.0
668,40730126.20397556
2,1, 7,21, 0, 9,30.00,40.00,SummerDesignDay
8,15.199735893563798
10,94037967.36468478
631,0.0
668,45483911.48556222
2,1, 7,21, 0, 9,40.00,50.00,SummerDesignDay
8,15.340306256439395
10,94037967.36468478
631,0.0
668,57580180.11911254
2,1, 7,21, 0, 9,50.00,60.00,SummerDesignDay
8,15.48015101768072
10,94037967.36468478
631,0.0
668,71269144.10519982
2,1, 7,21, 0, 9, 0.00,60.00,SummerDesignDay
357,23.9999999999997
397,23.392434843973918
437,23.212452716975183
477,21.474464426063624
517,23.999999998545378
2,1, 7,21, 0,10, 0.00,10.00,SummerDesignDay
8,15.60467292907716
10,124817711.19760992
631,0.0
668,104934492.13587563
2,1, 7,21, 0,10,10.00,20.00,SummerDesignDay
8,15.72862731650033
10,124817711.19760992
631,0.0
668,115048107.69894694
2,1, 7,21, 0,10,20.00,30.00,SummerDesignDay
8,15.852017409284228
10,124817711.19760992
631,0.0
668,120864344.24310059
2,1, 7,21, 0,10,30.00,40.00,SummerDesignDay
8,15.974848118364367
10,124817711.19760992
631,0.0
668,130332115.02487296
2,1, 7,21, 0,10,40.00,50.00,SummerDesignDay
8,16.097123145563505
10,124817711.19760992
631,0.0
668,140501395.7966621
2,1, 7,21, 0,10,50.00,60.00,SummerDesignDay
8,16.218846351168599
10,124817711.19760992
631,0.0
668,143273926.0756654
2,1, 7,21, 0,10, 0.00,60.00,SummerDesignDay
357,24.000000000000047
397,23.999997657152929
437,23.999907650558787
477,23.54952511899174
517,24.000000000000015
2,1, 7,21, 0,11, 0.00,10.00,SummerDesignDay
8,16.325793027093189
10,127630187.79014124
631,0.0
668,155427681.97805933
2,1, 7,21, 0,11,10.00,20.00,SummerDesignDay
8,16.432322158488288
10,127630187.79014124
631,0.0
668,161184269.48448167
2,1, 7,21, 0,11,20.00,30.00,SummerDesignDay
8,16.538424180249178
10,127630187.79014124
631,0.0
668,166228199.75736598
2,1, 7,21, 0,11,30.00,40.00,SummerDesignDay
8,16.644108396469087
10,127630187.79014124
631,0.0
668,171043108.40612195
2,1, 7,21, 0,11,40.00,50.00,SummerDesignDay
8,16.749376736593655
10,127630187.79014124
631,0.0
668,175696726.87612555
2,1, 7,21, 0,11,50.00,60.00,SummerDesignDay
8,16.854232613237156
10,127630187.79014124
631,0.0
668,180279752.57047875
2,1, 7,21, 0,11, 0.00,60.00,SummerDesignDay
357,24.00000000000006
397,24.00000000000004
437,23.99999999999672
477,23.99999980729541
517,23.999999999999984
2,1, 7,21, 0,12, 0.00,10.00,SummerDesignDay
8,16.92390823520069
10,130442664.38267255
631,0.0
668,187363686.17051224
2,1, 7,21, 0,12,10.00,20.00,SummerDesignDay
8,16.99340178950456
10,130442664.38267255
631,0.0
668,190785607.34131978
2,1, 7,21, 0,12,20.00,30.00,SummerDesignDay
8,17.06272006743463
10,130442664.38267255
631,0.0
668,193816535.13023398
2,1, 7,21, 0,12,30.00,40.00,SummerDesignDay
8,17.131853229172639
10,130442664.38267255
631,0.0
668,196877221.08298717
2,1, 7,21, 0,12,40.00,50.00,SummerDesignDay
8,17.200807172194087
10,130442664.38267255
631,0.0
668,199894298.87612043
2,1, 7,21, 0,12,50.00,60.00,SummerDesignDay
8,17.269582116758607
10,130442664.38267255
631,0.0
668,202895521.37975759
2,1, 7,21, 0,12, 0.00,60.00,SummerDesignDay
357,23.99999999999999
397,24.000000000000019
437,24.00000000000006
477,23.999999999999944
517,24.000000000000019
2,1, 7,21, 0,13, 0.00,10.00,SummerDesignDay
8,17.32447360221357
10,130442664.38267255
631,0.0
668,209516685.7133842
2,1, 7,21, 0,13,10.00,20.00,SummerDesignDay
8,17.379251291230806
10,130442664.38267255
631,0.0
668,212110396.58265183
2,1, 7,21, 0,13,20.00,30.00,SummerDesignDay
8,17.433921312061729
10,130442664.38267255
631,0.0
668,214492986.88974682
2,1, 7,21, 0,13,30.00,40.00,SummerDesignDay
8,17.488473222557489
10,130442664.38267255
631,0.0
668,216893344.7740902
2,1, 7,21, 0,13,40.00,50.00,SummerDesignDay
8,17.542913447755134
10,130442664.38267255
631,0.0
668,219284112.36940957
2,1, 7,21, 0,13,50.00,60.00,SummerDesignDay
8,17.59724609886134
10,130442664.38267255
631,0.0
668,221666758.6145253
2,1, 7,21, 0,13, 0.00,60.00,SummerDesignDay
357,24.0
397,24.000000000000015
437,24.000000000000033
477,24.000000000000019
517,23.99999999999999
2,1, 7,21, 0,14, 0.00,10.00,SummerDesignDay
8,17.6311450462694
10,130442664.38267255
631,0.0
668,222500185.71316395
2,1, 7,21, 0,14,10.00,20.00,SummerDesignDay
8,17.665000449016245
10,130442664.38267255
631,0.0
668,223946280.0085116
2,1, 7,21, 0,14,20.00,30.00,SummerDesignDay
8,17.698812743128934
10,130442664.38267255
631,0.0
668,225417723.87861226
2,1, 7,21, 0,14,30.00,40.00,SummerDesignDay
8,17.732582050940107
10,130442664.38267255
631,0.0
668,226887007.22874815
2,1, 7,21, 0,14,40.00,50.00,SummerDesignDay
8,17.766307345121004
10,130442664.38267255
631,0.0
668,228356045.51056097
2,1, 7,21, 0,14,50.00,60.00,SummerDesignDay
8,17.79999023167558
10,130442664.38267255
631,0.0
668,229824081.35573236
2,1, 7,21, 0,14, 0.00,60.00,SummerDesignDay
357,23.999999999999987
397,24.000000000000044
437,24.00000000000003
477,24.00000000000003
517,23.99999999999999
2,1, 7,21, 0,15, 0.00,10.00,SummerDesignDay
8,17.79999023167558
10,130442664.38267255
631,0.0
668,227776786.88570089
2,1, 7,21, 0,15,10.00,20.00,SummerDesignDay
8,17.79999023167558
10,130442664.38267255
631,0.0
668,227684768.69007949
2,1, 7,21, 0,15,20.00,30.00,SummerDesignDay
8,17.79999023167558
10,130442664.38267255
631,0.0
668,227688347.34998728
2,1, 7,21, 0,15,30.00,40.00,SummerDesignDay
8,17.79999023167558
10,130442664.38267255
631,0.0
668,227678935.64587227
2,1, 7,21, 0,15,40.00,50.00,SummerDesignDay
8,17.79999023167558
10,130442664.38267255
631,0.0
668,227670450.05424214
2,1, 7,21, 0,15,50.00,60.00,SummerDesignDay
8,17.79999023167558
10,130442664.38267255
631,0.0
668,227663925.93387274
2,1, 7,21, 0,15, 0.00,60.00,SummerDesignDay
357,24.000000000000058
397,24.0
437,24.000000000000019
477,24.000000000000015
517,24.00000000000003
2,1, 7,21, 0,16, 0.00,10.00,SummerDesignDay
8,17.759562446305357
10,130442664.38267255
631,0.0
668,223842826.8699448
2,1, 7,21, 0,16,10.00,20.00,SummerDesignDay
8,17.71907809634183
10,130442664.38267255
631,0.0
668,221988721.4640291
2,1, 7,21, 0,16,20.00,30.00,SummerDesignDay
8,17.67853788661001
10,130442664.38267255
631,0.0
668,220235540.98464255
2,1, 7,21, 0,16,30.00,40.00,SummerDesignDay
8,17.63791796367351
10,130442664.38267255
631,0.0
668,218469381.65070308
2,1, 7,21, 0,16,40.00,50.00,SummerDesignDay
8,17.59724609886134
10,130442664.38267255
631,0.0
668,216704768.46309338
2,1, 7,21, 0,16,50.00,60.00,SummerDesignDay
8,17.55650676726033
10,130442664.38267255
631,0.0
668,214942589.974834
2,1, 7,21, 0,16, 0.00,60.00,SummerDesignDay
357,24.000000000000005
397,24.000000000000015
437,24.000000000000097
477,24.00000000000001
517,24.000000000000005
2,1, 7,21, 0,17, 0.00,10.00,SummerDesignDay
8,17.50209486331892
10,130442664.38267255
631,0.0
668,213302836.28226654
2,1, 7,21, 0,17,10.00,20.00,SummerDesignDay
8,17.447570789624618
10,130442664.38267255
631,0.0
668,211014274.06635297
2,1, 7,21, 0,17,20.00,30.00,SummerDesignDay
8,17.392929544208135
10,130442664.38267255
631,0.0
668,208690415.50875376
2,1, 7,21, 0,17,30.00,40.00,SummerDesignDay
8,17.33818013976614
10,130442664.38267255
631,0.0
668,206364681.4435323
2,1, 7,21, 0,17,40.00,50.00,SummerDesignDay
8,17.283317298559309
10,130442664.38267255
631,0.0
668,204036973.95208604
2,1, 7,21, 0,17,50.00,60.00,SummerDesignDay
8,17.22833552437677
10,130442664.38267255
631,0.0
668,201707548.39236523
2,1, 7,21, 0,17, 0.00,60.00,SummerDesignDay
357,24.00000000000004
397,24.000000000000005
437,24.00000000000004
477,24.00000000000001
517,24.000000000000019
2,1, 7,21, 0,18, 0.00,10.00,SummerDesignDay
8,17.159453019160176
10,130442664.38267255
631,0.0
668,198747965.55240489
2,1, 7,21, 0,18,10.00,20.00,SummerDesignDay
8,17.090391773337136
10,130442664.38267255
631,0.0
668,195826127.5944821
2,1, 7,21, 0,18,20.00,30.00,SummerDesignDay
8,17.021151077964786
10,130442664.38267255
631,0.0
668,192905034.04922969
2,1, 7,21, 0,18,30.00,40.00,SummerDesignDay
8,16.951729380464653
10,130442664.38267255
631,0.0
668,189982225.45815266
2,1, 7,21, 0,18,40.00,50.00,SummerDesignDay
8,16.882126503829249
10,130442664.38267255
631,0.0
668,187060218.1229619
2,1, 7,21, 0,18,50.00,60.00,SummerDesignDay
8,16.812341807494034
10,130442664.38267255
631,0.0
668,184139362.1276276
2,1, 7,21, 0,18, 0.00,60.00,SummerDesignDay
357,23.999999999999998
397,24.00000000000003
437,24.000000000000015
477,24.0
517,24.000000000000026
2,1, 7,21, 0,19, 0.00,10.00,SummerDesignDay
8,16.707321072823203
10,130442664.38267255
631,0.0
668,180360103.91022665
2,1, 7,21, 0,19,10.00,20.00,SummerDesignDay
8,16.601881826644556
10,130442664.38267255
631,0.0
668,176010240.78429763
2,1, 7,21, 0,19,20.00,30.00,SummerDesignDay
8,16.496030555252849
10,130442664.38267255
631,0.0
668,171622487.04699553
2,1, 7,21, 0,19,30.00,40.00,SummerDesignDay
8,16.389760181474104
10,130442664.38267255
631,0.0
668,167238314.09846539
2,1, 7,21, 0,19,40.00,50.00,SummerDesignDay
8,16.283067654262039
10,130442664.38267255
631,0.0
668,162856570.65439175
2,1, 7,21, 0,19,50.00,60.00,SummerDesignDay
8,16.17595057957811
10,130442664.38267255
631,0.0
668,158476271.69851364
2,1, 7,21, 0,19, 0.00,60.00,SummerDesignDay
357,24.00000000000004
397,24.000000000000044
437,24.0
477,24.000000000000019
517,23.999999999999984
2,1, 7,21, 0,20, 0.00,10.00,SummerDesignDay
8,16.097123145563505
10,111576571.39677567
631,0.0
668,140535138.3410539
2,1, 7,21, 0,20,10.00,20.00,SummerDesignDay
8,16.018070242471564
10,111576571.39677567
631,0.0
668,135633734.79435674
2,1, 7,21, 0,20,20.00,30.00,SummerDesignDay
8,15.938779752340516
10,111576571.39677567
631,0.0
668,131919942.31457609
2,1, 7,21, 0,20,30.00,40.00,SummerDesignDay
8,15.85926152575189
10,111576571.39677567
631,0.0
668,128110742.97946945
2,1, 7,21, 0,20,40.00,50.00,SummerDesignDay
8,15.779503718563929
10,111576571.39677567
631,0.0
668,124384313.27977526
2,1, 7,21, 0,20,50.00,60.00,SummerDesignDay
8,15.699515709672767
10,111576571.39677567
631,0.0
668,120518997.08757755
2,1, 7,21, 0,20, 0.00,60.00,SummerDesignDay
357,23.999999999999987
397,24.00000000000001
437,23.999999999999987
477,24.000000000000033
517,23.999999999999984
2,1, 7,21, 0,21, 0.00,10.00,SummerDesignDay
8,15.63389147320404
10,105287873.73481003
631,0.0
668,110751625.36771882
2,1, 7,21, 0,21,10.00,20.00,SummerDesignDay
8,15.56810827419793
10,105287873.73481003
631,0.0
668,106354520.7172009
2,1, 7,21, 0,21,20.00,30.00,SummerDesignDay
8,15.502170882753524
10,105287873.73481003
631,0.0
668,102585156.6238924
2,1, 7,21, 0,21,30.00,40.00,SummerDesignDay
8,15.436068032613852
10,105287873.73481003
631,0.0
668,98780899.09825227
2,1, 7,21, 0,21,40.00,50.00,SummerDesignDay
8,15.369804371206009
10,105287873.73481003
631,0.0
668,95014223.23871246
2,1, 7,21, 0,21,50.00,60.00,SummerDesignDay
8,15.303384603594449
10,105287873.73481003
631,0.0
668,91289108.46438554
2,1, 7,21, 0,21, 0.00,60.00,SummerDesignDay
357,23.999999999999984
397,24.000000000000033
437,23.999999999999998
477,24.000000000000019
517,23.99999999999997
2,1, 7,21, 0,22, 0.00,10.00,SummerDesignDay
8,15.236797685071274
10,76988734.2559647
631,0.0
668,67679480.69637168
2,1, 7,21, 0,22,10.00,20.00,SummerDesignDay
8,15.170047891787942
10,76988734.2559647
631,0.0
668,65115250.304222408
2,1, 7,21, 0,22,20.00,30.00,SummerDesignDay
8,15.103134826860483
10,76988734.2559647
631,0.0
668,62498420.40000571
2,1, 7,21, 0,22,30.00,40.00,SummerDesignDay
8,15.036063385178485
10,76988734.2559647
631,0.0
668,59888874.07154683
2,1, 7,21, 0,22,40.00,50.00,SummerDesignDay
8,14.968821767219835
10,76988734.2559647
631,0.0
668,57205642.942106578
2,1, 7,21, 0,22,50.00,60.00,SummerDesignDay
8,14.90141525878635
10,76988734.2559647
631,0.0
668,54483445.294138
2,1, 7,21, 0,22, 0.00,60.00,SummerDesignDay
357,24.000000000000005
397,23.28046201317511
437,22.96412417757725
477,24.000000000000005
517,24.0
2,1, 7,21, 0,23, 0.00,10.00,SummerDesignDay
8,14.848873673278373
10,76988734.2559647
631,0.0
668,49366279.16749247
2,1, 7,21, 0,23,10.00,20.00,SummerDesignDay
8,14.796237168136719
10,76988734.2559647
631,0.0
668,47113847.77152844
2,1, 7,21, 0,23,20.00,30.00,SummerDesignDay
8,14.743494321455645
10,76988734.2559647
631,0.0
668,44992839.41607288
2,1, 7,21, 0,23,30.00,40.00,SummerDesignDay
8,14.690649975253665
10,76988734.2559647
631,0.0
668,42882866.33721123
2,1, 7,21, 0,23,40.00,50.00,SummerDesignDay
8,14.637704281233117
10,76988734.2559647
631,0.0
668,40799503.1789229
2,1, 7,21, 0,23,50.00,60.00,SummerDesignDay
8,14.584656914839757
10,76988734.2559647
631,0.0
668,38737095.50367893
2,1, 7,21, 0,23, 0.00,60.00,SummerDesignDay
357,24.000000000000015
397,22.220862336228384
437,21.74775540542169
477,24.00000000000001
517,24.000000000000015
2,1, 7,21, 0,24, 0.00,10.00,SummerDesignDay
8,14.531507212058875
10,76988734.2559647
631,0.0
668,34728287.41198345
2,1, 7,21, 0,24,10.00,20.00,SummerDesignDay
8,14.47825496413355
10,76988734.2559647
631,0.0
668,32609006.686525607
2,1, 7,21, 0,24,20.00,30.00,SummerDesignDay
8,14.4249000133173
10,76988734.2559647
631,0.0
668,30578779.889360489
2,1, 7,21, 0,24,30.00,40.00,SummerDesignDay
8,14.371447531304272
10,76988734.2559647
631,0.0
668,28552877.06650532
2,1, 7,21, 0,24,40.00,50.00,SummerDesignDay
8,14.31788619902223
10,76988734.2559647
631,0.0
668,26540060.27358037
2,1, 7,21, 0,24,50.00,60.00,SummerDesignDay
8,14.264220970176066
10,76988734.2559647
631,0.0
668,24536134.675880959
2,1, 7,21, 0,24, 0.00,60.00,SummerDesignDay
357,24.000000000000005
397,21.53604026568108
437,21.01862176615775
477,23.999999999999987
517,24.000000000000005
3,1, 7,21, 0,SummerDesignDay
358,43.36524816419979,41.241983546291518,20,50,47.59755674443201, 6,20
398,47.9816490371659,40.892461759228257,20,60,59.22364374555325, 6,30
438,48.90684239194204,40.75447287125324,11,10,62.24617815725681, 6,20
478,48.21865780800064,41.63158236254808,17,60,58.110604094233057, 6,50
518,45.12343619442688,42.75963252029495,20,30,49.59337261279999, 6,30
4,1, 7
7,22.2505,16.5,21, 5,60,28.9,21,14,60
1,FORT MCMURRAY AP ANN HTG 99.6% CONDNS DB,  56.65,-111.22,  -7.00, 369.10
2,1, 1,21, 0, 1, 0.00,10.00,WinterDesignDay
8,-36.2
10,76988734.2559647
631,717056654.784087
668,0.0
2,1, 1,21, 0, 1,10.00,20.00,WinterDesignDay
8,-36.2
10,76988734.2559647
631,717130744.1625584
668,0.0
2,1, 1,21, 0, 1,20.00,30.00,WinterDesignDay
8,-36.2
10,76988734.2559647
631,717154426.6474582
668,0.0
2,1, 1,21, 0, 1,30.00,40.00,WinterDesignDay
8,-36.2
10,76988734.2559647
631,717181608.4411378
668,0.0
2,1, 1,21, 0, 1,40.00,50.00,WinterDesignDay
8,-36.2
10,76988734.2559647
631,717206180.7353528
668,0.0
2,1, 1,21, 0, 1,50.00,60.00,WinterDesignDay
8,-36.2
10,76988734.2559647
631,717227021.5404255
668,0.0
2,1, 1,21, 0, 1, 0.00,60.00,WinterDesignDay
357,22.000000000000019
397,18.000000000000015
437,18.00000000000001
477,22.00000000000001
517,22.000000000000019
2,1, 1,21, 0, 2, 0.00,10.00,WinterDesignDay
8,-36.2
10,71363781.07090205
631,586799072.9352381
668,0.0
2,1, 1,21, 0, 2,10.00,20.00,WinterDesignDay
8,-36.2
10,71363781.07090205
631,648900073.8956442
668,0.0
2,1, 1,21, 0, 2,20.00,30.00,WinterDesignDay
8,-36.2
10,71363781.07090205
631,663655414.0554214
668,0.0
2,1, 1,21, 0, 2,30.00,40.00,WinterDesignDay
8,-36.2
10,71363781.07090205
631,673997905.2850516
668,0.0
2,1, 1,21, 0, 2,40.00,50.00,WinterDesignDay
8,-36.2
10,71363781.07090205
631,678574748.5641385
668,0.0
2,1, 1,21, 0, 2,50.00,60.00,WinterDesignDay
8,-36.2
10,71363781.07090205
631,679763688.3777527
668,0.0
2,1, 1,21, 0, 2, 0.00,60.00,WinterDesignDay
357,18.059650818588673
397,18.00000000000001
437,18.0
477,22.000000000000005
517,18.118562304591309
2,1, 1,21, 0, 3, 0.00,10.00,WinterDesignDay
8,-36.2
10,65738827.88583943
631,638712563.2111958
668,0.0
2,1, 1,21, 0, 3,10.00,20.00,WinterDesignDay
8,-36.2
10,65738827.88583943
631,661678106.5561253
668,0.0
2,1, 1,21, 0, 3,20.00,30.00,WinterDesignDay
8,-36.2
10,65738827.88583943
631,672039111.6433339
668,0.0
2,1, 1,21, 0, 3,30.00,40.00,WinterDesignDay
8,-36.2
10,65738827.88583943
631,673325395.4414431
668,0.0
2,1, 1,21, 0, 3,40.00,50.00,WinterDesignDay
8,-36.2
10,65738827.88583943
631,676056833.3054137
668,0.0
2,1, 1,21, 0, 3,50.00,60.00,WinterDesignDay
8,-36.2
10,65738827.88583943
631,676691378.8163481
668,0.0
2,1, 1,21, 0, 3, 0.00,60.00,WinterDesignDay
357,18.00000000004137
397,18.0
437,18.000000000000005
477,18.12247773673052
517,18.000000000000566
2,1, 1,21, 0, 4, 0.00,10.00,WinterDesignDay
8,-36.2
10,65738827.88583943
631,677165968.8420425
668,0.0
2,1, 1,21, 0, 4,10.00,20.00,WinterDesignDay
8,-36.2
10,65738827.88583943
631,677519672.962284
668,0.0
2,1, 1,21, 0, 4,20.00,30.00,WinterDesignDay
8,-36.2
10,65738827.88583943
631,677785287.4603602
668,0.0
2,1, 1,21, 0, 4,30.00,40.00,WinterDesignDay
8,-36.2
10,65738827.88583943
631,677996872.2484069
668,0.0
2,1, 1,21, 0, 4,40.00,50.00,WinterDesignDay
8,-36.2
10,65738827.88583943
631,678153591.2945781
668,0.0
2,1, 1,21, 0, 4,50.00,60.00,WinterDesignDay
8,-36.2
10,65738827.88583943
631,678279808.9909182
668,0.0
2,1, 1,21, 0, 4, 0.00,60.00,WinterDesignDay
357,18.000000000000033
397,18.00000000000001
437,18.000000000000008
477,18.000000000015356
517,18.000000000000026
2,1, 1,21, 0, 5, 0.00,10.00,WinterDesignDay
8,-36.2
10,65738827.88583943
631,678372370.5924777
668,0.0
2,1, 1,21, 0, 5,10.00,20.00,WinterDesignDay
8,-36.2
10,65738827.88583943
631,678448775.4555503
668,0.0
2,1, 1,21, 0, 5,20.00,30.00,WinterDesignDay
8,-36.2
10,65738827.88583943
631,678502703.662508
668,0.0
2,1, 1,21, 0, 5,30.00,40.00,WinterDesignDay
8,-36.2
10,65738827.88583943
631,678548637.5827229
668,0.0
2,1, 1,21, 0, 5,40.00,50.00,WinterDesignDay
8,-36.2
10,65738827.88583943
631,678589298.7869191
668,0.0
2,1, 1,21, 0, 5,50.00,60.00,WinterDesignDay
8,-36.2
10,65738827.88583943
631,678623393.1859317
668,0.0
2,1, 1,21, 0, 5, 0.00,60.00,WinterDesignDay
357,18.00000000000006
397,18.00000000000001
437,18.000000000000008
477,18.00000000000001
517,18.000000000000033
2,1, 1,21, 0, 6, 0.00,10.00,WinterDesignDay
8,-36.2
10,65738827.88583943
631,678651574.7817288
668,0.0
2,1, 1,21, 0, 6,10.00,20.00,WinterDesignDay
8,-36.2
10,65738827.88583943
631,678674840.817471
668,0.0
2,1, 1,21, 0, 6,20.00,30.00,WinterDesignDay
8,-36.2
10,65738827.88583943
631,678694120.8945671
668,0.0
2,1, 1,21, 0, 6,30.00,40.00,WinterDesignDay
8,-36.2
10,65738827.88583943
631,678710191.334756
668,0.0
2,1, 1,21, 0, 6,40.00,50.00,WinterDesignDay
8,-36.2
10,65738827.88583943
631,678720024.7305632
668,0.0
2,1, 1,21, 0, 6,50.00,60.00,WinterDesignDay
8,-36.2
10,65738827.88583943
631,678728195.1642014
668,0.0
2,1, 1,21, 0, 6, 0.00,60.00,WinterDesignDay
357,18.00000000000003
397,18.000000000000005
437,18.000000000000005
477,18.00000000000001
517,18.000000000000026
2,1, 1,21, 0, 7, 0.00,10.00,WinterDesignDay
8,-36.2
10,65738827.88583943
631,678736449.2780758
668,0.0
2,1, 1,21, 0, 7,10.00,20.00,WinterDesignDay
8,-36.2
10,65738827.88583943
631,678744219.2892101
668,0.0
2,1, 1,21, 0, 7,20.00,30.00,WinterDesignDay
8,-36.2
10,65738827.88583943
631,678751405.7224649
668,0.0
2,1, 1,21, 0, 7,30.00,40.00,WinterDesignDay
8,-36.2
10,65738827.88583943
631,678757929.0300983
668,0.0
2,1, 1,21, 0, 7,40.00,50.00,WinterDesignDay
8,-36.2
10,65738827.88583943
631,678763838.0863963
668,0.0
2,1, 1,21, 0, 7,50.00,60.00,WinterDesignDay
8,-36.2
10,65738827.88583943
631,678769165.804036
668,0.0
2,1, 1,21, 0, 7, 0.00,60.00,WinterDesignDay
357,18.000000000000058
397,18.00000000000001
437,18.000000000000005
477,18.00000000000001
517,18.000000000000037
2,1, 1,21, 0, 8, 0.00,10.00,WinterDesignDay
8,-36.2
10,65738827.88583943
631,812994491.1184229
668,0.0
2,1, 1,21, 0, 8,10.00,20.00,WinterDesignDay
8,-36.2
10,65738827.88583943
631,640295377.0742709
668,0.0
2,1, 1,21, 0, 8,20.00,30.00,WinterDesignDay
8,-36.2
10,65738827.88583943
631,741059011.3752755
668,0.0
2,1, 1,21, 0, 8,30.00,40.00,WinterDesignDay
8,-36.2
10,65738827.88583943
631,717284028.6977799
668,0.0
2,1, 1,21, 0, 8,40.00,50.00,WinterDesignDay
8,-36.2
10,65738827.88583943
631,716041196.5673547
668,0.0
2,1, 1,21, 0, 8,50.00,60.00,WinterDesignDay
8,-36.2
10,65738827.88583943
631,715283447.6487546
668,0.0
2,1, 1,21, 0, 8, 0.00,60.00,WinterDesignDay
357,19.997523697940026
397,19.99733869449594
437,19.997164105679059
477,18.00000000000001
517,20.000509794411525
2,1, 1,21, 0, 9, 0.00,10.00,WinterDesignDay
8,-36.2
10,94037967.36468478
631,851517238.5754147
668,0.0
2,1, 1,21, 0, 9,10.00,20.00,WinterDesignDay
8,-36.2
10,94037967.36468478
631,643105454.113013
668,0.0
2,1, 1,21, 0, 9,20.00,30.00,WinterDesignDay
8,-36.2
10,94037967.36468478
631,764454916.4518751
668,0.0
2,1, 1,21, 0, 9,30.00,40.00,WinterDesignDay
8,-36.2
10,94037967.36468478
631,734708615.2041698
668,0.0
2,1, 1,21, 0, 9,40.00,50.00,WinterDesignDay
8,-36.2
10,94037967.36468478
631,732615435.1171054
668,0.0
2,1, 1,21, 0, 9,50.00,60.00,WinterDesignDay
8,-36.2
10,94037967.36468478
631,731220222.8999636
668,0.0
2,1, 1,21, 0, 9, 0.00,60.00,WinterDesignDay
357,21.997327750219559
397,21.998125391091368
437,21.997083575665476
477,20.00145197050731
517,21.998473210271795
2,1, 1,21, 0,10, 0.00,10.00,WinterDesignDay
8,-36.2
10,124817711.19760992
631,733036344.408385
668,0.0
2,1, 1,21, 0,10,10.00,20.00,WinterDesignDay
8,-36.2
10,124817711.19760992
631,690071018.8947187
668,0.0