Program Version,EnergyPlus, Version 8.9.0-eba93e8e1b, YMD=2019.03.28 13:10
1,5,Environment Title[],Latitude[deg],Longitude[deg],Time Zone[],Elevation[m]
2,8,Day of Simulation[],Month[],Day of Month[],DST Indicator[1=yes 0=no],Hour[],StartMinute[],EndMinute[],DayType
3,5,Cumulative Day of Simulation[],Month[],Day of Month[],DST Indicator[1=yes 0=no],DayType  ! When Daily Report Variables Requested
4,2,Cumulative Days of Simulation[],Month[]  ! When Monthly Report Variables Requested
5,1,Cumulative Days of Simulation[] ! When Run Period Report Variables Requested
6,1,Calendar Year of Simulation[] ! When Annual Report Variables Requested
7,9,Environment,Site Outdoor Air Drybulb Temperature [C] !Monthly [Value,Min,Day,Hour,Minute,Max,Day,Hour,Minute]
8,1,Environment,Site Outdoor Air Wetbulb Temperature [C] !TimeStep
888,1,ATRIUM - H < 13M-SPACE FUNCTION ZN,Zone Air Temperature [C] !Hourly
889,7,ATRIUM - H < 13M-SPACE FUNCTION ZN,Zone Air Relative Humidity [%] !Daily [Value,Min,Hour,Minute,Max,Hour,Minute]
928,1,ATRIUM - H > 13M-SPACE FUNCTION ZN,Zone Air Temperature [C] !Hourly
929,7,ATRIUM - H > 13M-SPACE FUNCTION ZN,Zone Air Relative Humidity [%] !Daily [Value,Min,Hour,Minute,Max,Hour,Minute]
968,1,AUDIENCE - AUDITORIUM-SPACE FUNCTION ZN,Zone Air Temperature [C] !Hourly
969,7,AUDIENCE - AUDITORIUM-SPACE FUNCTION ZN,Zone Air Relative Humidity [%] !Daily [Value,Min,Hour,Minute,Max,Hour,Minute]
1008,1,AUDIENCE - MOTION PICTURE-SPACE FUNCTION ZN,Zone Air Temperature [C] !Hourly
1009,7,AUDIENCE - MOTION PICTURE-SPACE FUNCTION ZN,Zone Air Relative Humidity [%] !Daily [Value,Min,Hour,Minute,Max,Hour,Minute]
1048,1,AUDIENCE - PERFORMANCE ARTS-SPACE FUNCTION ZN,Zone Air Temperature [C] !Hourly
1049,7,AUDIENCE - PERFORMANCE ARTS-SPACE FUNCTION ZN,Zone Air Relative Humidity [%] !Daily [Value,Min,Hour,Minute,Max,Hour,Minute]
1088,1,AUTOMOTIVE - REPAIR-SPACE FUNCTION ZN,Zone Air Temperature [C] !Hourly
1089,7,AUTOMOTIVE - REPAIR-SPACE FUNCTION ZN,Zone Air Relative Humidity [%] !Daily [Value,Min,Hour,Minute,Max,Hour,Minute]
1128,1,BANK - BANKING AND OFFICES-SPACE FUNCTION ZN,Zone Air Temperature [C] !Hourly
1129,7,BANK - BANKING AND OFFICES-SPACE FUNCTION ZN,Zone Air Relative Humidity [%] !Daily [Value,Min,Hour,Minute,Max,Hour,Minute]
1168,1,CLASSROOM/LECTURE/TRAINING-SPACE FUNCTION ZN,Zone Air Temperature [C] !Hourly
1169,7,CLASSROOM/LECTURE/TRAINING-SPACE FUNCTION ZN,Zone Air Relative Humidity [%] !Daily [Value,Min,Hour,Minute,Max,Hour,Minute]
1208,1,CONF./MEET./MULTI-PURPOSE-SPACE FUNCTION ZN,Zone Air Temperature [C] !Hourly
1209,7,CONF./MEET./MULTI-PURPOSE-SPACE FUNCTION ZN,Zone Air Relative Humidity [%] !Daily [Value,Min,Hour,Minute,Max,Hour,Minute]
1248,1,CONVENTION CENTRE - AUDIENCE-SPACE FUNCTION ZN,Zone Air Temperature [C] !Hourly
1249,7,CONVENTION CENTRE - AUDIENCE-SPACE FUNCTION ZN,Zone Air Relative Humidity [%] !Daily [Value,Min,Hour,Minute,Max,Hour,Minute]
1288,1,CONVENTION CENTRE - EXHIBIT-SPACE FUNCTION ZN,Zone Air Temperature [C] !Hourly
1289,7,CONVENTION CENTRE - EXHIBIT-SPACE FUNCTION ZN,Zone Air Relative Humidity [%] !Daily [Value,Min,Hour,Minute,Max,Hour,Minute]
1328,1,COURTHOUSE - CELL-SPACE FUNCTION ZN,Zone Air Temperature [C] !Hourly
1329,7,COURTHOUSE - CELL-SPACE FUNCTION ZN,Zone Air Relative Humidity [%] !Daily [Value,Min,Hour,Minute,Max,Hour,Minute]
1368,1,WHOLEBUILDING-PARKING GARAGE ZN,Zone Air Temperature [C] !Hourly
1369,7,WHOLEBUILDING-PARKING GARAGE ZN,Zone Air Relative Humidity [%] !Daily [Value,Min,Hour,Minute,Max,Hour,Minute]
1408,1,WHOLEBUILDING-PENITENTIARY ZN,Zone Air Temperature [C] !Hourly
1409,7,WHOLEBUILDING-PENITENTIARY ZN,Zone Air Relative Humidity [%] !Daily [Value,Min,Hour,Minute,Max,Hour,Minute]
1448,1,WHOLEBUILDING-PERFORMING ARTS THEATRE ZN,Zone Air Temperature [C] !Hourly
1449,7,WHOLEBUILDING-PERFORMING ARTS THEATRE ZN,Zone Air Relative Humidity [%] !Daily [Value,Min,Hour,Minute,Max,Hour,Minute]
1488,1,WHOLEBUILDING-POLICE STATION ZN,Zone Air Temperature [C] !Hourly
1489,7,WHOLEBUILDING-POLICE STATION ZN,Zone Air Relative Humidity [%] !Daily [Value,Min,Hour,Minute,Max,Hour,Minute]
1528,1,WHOLEBUILDING-POST OFFICE ZN,Zone Air Temperature [C] !Hourly
1529,7,WHOLEBUILDING-POST OFFICE ZN,Zone Air Relative Humidity [%] !Daily [Value,Min,Hour,Minute,Max,Hour,Minute]
1568,1,WHOLEBUILDING-RELIGIOUS ZN,Zone Air Temperature [C] !Hourly
1569,7,WHOLEBUILDING-RELIGIOUS ZN,Zone Air Relative Humidity [%] !Daily [Value,Min,Hour,Minute,Max,Hour,Minute]
1608,1,WHOLEBUILDING-RETAIL ZN,Zone Air Temperature [C] !Hourly
1609,7,WHOLEBUILDING-RETAIL ZN,Zone Air Relative Humidity [%] !Daily [Value,Min,Hour,Minute,Max,Hour,Minute]
1648,1,WHOLEBUILDING-SCHOOL/UNIVERSITY ZN,Zone Air Temperature [C] !Hourly
1649,7,WHOLEBUILDING-SCHOOL/UNIVERSITY ZN,Zone Air Relative Humidity [%] !Daily [Value,Min,Hour,Minute,Max,Hour,Minute]
10,1,Electricity:Facility [J] !TimeStep
1799,1,DistrictCooling:Facility [J] !TimeStep
1762,1,DistrictHeating:Facility [J] !TimeStep
End of Data Dictionary
1,FORT MCMURRAY AP ANN CLG .4% CONDNS DB=>MWB,  56.65,-111.22,  -7.00, 369.10
2,1, 7,21, 0, 1, 0.00,10.00,SummerDesignDay
8,14.218136923962174
10,78947155.44878149
1762,0.0
1799,57080278.58152684
2,1, 7,21, 0, 1,10.00,20.00,SummerDesignDay
8,14.171982153293495
10,78947155.44878149
1762,0.0
1799,55991264.1759332
2,1, 7,21, 0, 1,20.00,30.00,SummerDesignDay
8,14.125744780286427
10,78947155.44878149
1762,0.0
1799,54890911.5477788
2,1, 7,21, 0, 1,30.00,40.00,SummerDesignDay
8,14.079436086331978
10,78947155.44878149
1762,0.0
1799,53789669.40530546
2,1, 7,21, 0, 1,40.00,50.00,SummerDesignDay
8,14.033050387896898
10,78947155.44878149
1762,0.0
1799,52690404.610576558
2,1, 7,21, 0, 1,50.00,60.00,SummerDesignDay
8,13.986581233564835
10,78947155.44878149
1762,0.0
1799,51592516.724696669
2,1, 7,21, 0, 1, 0.00,60.00,SummerDesignDay
888,24.002775539841918
928,24.094908881318636
968,21.207791120978837
1008,20.71357970496175
1048,20.770351318227964
1088,22.762778257655787
1128,23.843564804391776
1168,22.467313876946418
1208,23.816147659646615
1248,20.71854687428988
1288,24.00096255403952
1328,23.999999999999998
1368,24.0
1408,24.000000000000019
1448,25.200743537497805
1488,23.999999999999987
1528,23.86776449884106
1568,24.183755936977936
1608,25.368487495963469
1648,24.257600412018367
2,1, 7,21, 0, 2, 0.00,10.00,SummerDesignDay
8,13.95555882260429
10,71319718.92867407
1762,0.0
1799,50691913.75835401
2,1, 7,21, 0, 2,10.00,20.00,SummerDesignDay
8,13.924507755336454
10,71319718.92867407
1762,0.0
1799,49935730.64973908
2,1, 7,21, 0, 2,20.00,30.00,SummerDesignDay
8,13.893416042989206
10,71319718.92867407
1762,0.0
1799,49234420.05122426
2,1, 7,21, 0, 2,30.00,40.00,SummerDesignDay
8,13.862289589689029
10,71319718.92867407
1762,0.0
1799,48523057.21302807
2,1, 7,21, 0, 2,40.00,50.00,SummerDesignDay
8,13.831134407608739
10,71319718.92867407
1762,0.0
1799,47818422.581035528
2,1, 7,21, 0, 2,50.00,60.00,SummerDesignDay
8,13.799938415548118
10,71319718.92867407
1762,0.0
1799,47111396.004820588
2,1, 7,21, 0, 2, 0.00,60.00,SummerDesignDay
888,23.881032751885198
928,23.743143944346213
968,20.808240759097307
1008,20.18844648636785
1048,20.25003096944295
1088,22.49691886380567
1128,23.62216772665958
1168,22.081533853159255
1208,23.46382064246886
1248,20.290531433683975
1288,23.783670771901585
1328,24.00000000000004
1368,23.95421279361041
1408,23.99999999999999
1448,24.933752180158156
1488,24.0
1528,23.63825565424862
1568,23.3582059162469
1608,25.158941441980237
1648,24.04260644133598
2,1, 7,21, 0, 3, 0.00,10.00,SummerDesignDay
8,13.776521671948676
10,71319718.92867407
1762,0.0
1799,46476770.68522827
2,1, 7,21, 0, 3,10.00,20.00,SummerDesignDay
8,13.753085235778466
10,71319718.92867407
1762,0.0
1799,45837054.92748204
2,1, 7,21, 0, 3,20.00,30.00,SummerDesignDay
8,13.729636002354969
10,71319718.92867407
1762,0.0
1799,45193704.06943015
2,1, 7,21, 0, 3,30.00,40.00,SummerDesignDay
8,13.706147375533054
10,71319718.92867407
1762,0.0
1799,44548205.55024356
2,1, 7,21, 0, 3,40.00,50.00,SummerDesignDay
8,13.682651961920304
10,71319718.92867407
1762,0.0
1799,43901689.38260917
2,1, 7,21, 0, 3,50.00,60.00,SummerDesignDay
8,13.659136670643687
10,71319718.92867407
1762,0.0
1799,43254764.978207219
2,1, 7,21, 0, 3, 0.00,60.00,SummerDesignDay
888,23.758602701431255
928,23.369050144532058
968,20.48294251980055
1008,19.756202728525776
1048,19.82509195624456
1088,22.258884806563075
1128,23.422624969942118
1168,21.751791209579328
1208,23.135406163860244
1248,19.940880609084699
1288,23.584215941073194
1328,24.000000000000044
1368,23.740057293118615
1408,24.000000000000019
1448,24.66347230398179
1488,24.00000000000001
1528,23.416872566675236
1568,22.555545881392729
1608,24.947838519802887
1648,23.831393492579495
2,1, 7,21, 0, 4, 0.00,10.00,SummerDesignDay
8,13.63560137410855
10,71319718.92867407
1762,0.0
1799,42607871.82016267
2,1, 7,21, 0, 4,10.00,20.00,SummerDesignDay
8,13.612040802606578
10,71319718.92867407
1762,0.0
1799,41961229.59833093
2,1, 7,21, 0, 4,20.00,30.00,SummerDesignDay
8,13.58846620506876
10,71319718.92867407
1762,0.0
1799,41315085.948073249
2,1, 7,21, 0, 4,30.00,40.00,SummerDesignDay
8,13.56487178447336
10,71319718.92867407
1762,0.0
1799,40669571.17152233
2,1, 7,21, 0, 4,40.00,50.00,SummerDesignDay
8,13.541257354069103
10,71319718.92867407
1762,0.0
1799,40024795.0924729
2,1, 7,21, 0, 4,50.00,60.00,SummerDesignDay
8,13.517617463812285
10,71319718.92867407
1762,0.0
1799,39380821.08539502
2,1, 7,21, 0, 4, 0.00,60.00,SummerDesignDay
888,23.65110342955349
928,23.039926427370934
968,20.2032297237683
1008,19.39932933067317
1048,19.477858330121717
1088,22.056808767249068
1128,23.256102360526766
1168,21.46509471553203
1208,22.842994472830698
1248,19.642664748751974
1288,23.41318856339856
1328,24.00000000000001
1368,23.492969534669869
1408,24.00000000000001
1448,24.420916083159864
1488,24.000000000000019
1528,23.222897666267796
1568,22.206493644117275
1608,24.75874385442909
1648,23.645083125232956
2,1, 7,21, 0, 5, 0.00,10.00,SummerDesignDay
8,13.50185415824011
10,71319718.92867407
1762,0.0
1799,38815294.84175359
2,1, 7,21, 0, 5,10.00,20.00,SummerDesignDay
8,13.486076034032447
10,71319718.92867407
1762,0.0
1799,39078778.60284548
2,1, 7,21, 0, 5,20.00,30.00,SummerDesignDay
8,13.470289340350983
10,71319718.92867407
1762,0.0
1799,39335664.51217381
2,1, 7,21, 0, 5,30.00,40.00,SummerDesignDay
8,13.454493322631063
10,71319718.92867407
1762,0.0
1799,39751154.33157985
2,1, 7,21, 0, 5,40.00,50.00,SummerDesignDay
8,13.438688835118548
10,71319718.92867407
1762,0.0
1799,40219889.4131228
2,1, 7,21, 0, 5,50.00,60.00,SummerDesignDay
8,13.422888173889437
10,71319718.92867407
1762,0.0
1799,40639295.702922049
2,1, 7,21, 0, 5, 0.00,60.00,SummerDesignDay
888,23.54791896358444
928,22.80930000049767
968,19.953341329416998
1008,19.29294411427152
1048,19.31746499127715
1088,21.8694343228648
1128,23.10360965666368
1168,21.207687367230134
1208,22.573001853164738
1248,19.376412398399585
1288,23.318320729519159
1328,24.00000000000004
1368,23.3282279526136
1408,24.000000000000005
1448,24.302896531963169
1488,24.00000000000003
1528,23.0375403092993
1568,21.994547604417496
1608,24.582342566475757
1648,23.474184636832566
2,1, 7,21, 0, 6, 0.00,10.00,SummerDesignDay
8,13.438688835118548
10,71319718.92867407
1762,0.0
1799,41260869.351558219
2,1, 7,21, 0, 6,10.00,20.00,SummerDesignDay
8,13.454493322631063
10,71319718.92867407
1762,0.0
1799,41833347.76433137
2,1, 7,21, 0, 6,20.00,30.00,SummerDesignDay
8,13.470289340350983
10,71319718.92867407
1762,0.0
1799,42354349.92781552
2,1, 7,21, 0, 6,30.00,40.00,SummerDesignDay
8,13.486076034032447
10,71319718.92867407
1762,0.0
1799,42835253.02474081
2,1, 7,21, 0, 6,40.00,50.00,SummerDesignDay
8,13.50185415824011
10,71319718.92867407
1762,0.0
1799,43289340.59108296
2,1, 7,21, 0, 6,50.00,60.00,SummerDesignDay
8,13.517617463812285
10,71319718.92867407
1762,0.0
1799,43729561.678833309
2,1, 7,21, 0, 6, 0.00,60.00,SummerDesignDay
888,23.474856848229867
928,22.886288301363874
968,19.86110635953269
1008,19.922542281798589
1048,19.50882780674441
1088,21.758450716913957
1128,23.021690778460497
1168,21.086217823715925
1208,22.408999784869413
1248,19.271433576872579
1288,23.339436991247039
1328,24.0
1368,23.4721126306095
1408,24.0
1448,24.644535695684878
1488,24.0
1528,22.90320985293161
1568,22.073109316477916
1608,24.46726273436445
1648,23.37494112916609
2,1, 7,21, 0, 7, 0.00,10.00,SummerDesignDay
8,13.572736920571789
10,71319718.92867407
1762,0.0
1799,44558615.19337228
2,1, 7,21, 0, 7,10.00,20.00,SummerDesignDay
8,13.627748229152554
10,71319718.92867407
1762,0.0
1799,45384234.163951117
2,1, 7,21, 0, 7,20.00,30.00,SummerDesignDay
8,13.682651961920304
10,71319718.92867407
1762,0.0
1799,46216094.57710331
2,1, 7,21, 0, 7,30.00,40.00,SummerDesignDay
8,13.737448093244995
10,71319718.92867407
1762,0.0
1799,46956641.87943659
2,1, 7,21, 0, 7,40.00,50.00,SummerDesignDay
8,13.792137011831216
10,71319718.92867407
1762,0.0
1799,51033054.96124334
2,1, 7,21, 0, 7,50.00,60.00,SummerDesignDay
8,13.846719282840333
10,71319718.92867407
1762,0.0
1799,51145391.71917777
2,1, 7,21, 0, 7, 0.00,60.00,SummerDesignDay
888,23.46772435246834
928,23.290513414084456
968,20.06462933142357
1008,20.93224549140082
1048,19.935758943131508
1088,21.809935696757795
1128,23.0915991995931
1168,21.208352684370884
1208,22.434464132314664
1248,19.480051245381757
1288,23.333348841526584
1328,24.000000000000044
1368,23.889797740723723
1408,24.0
1448,25.15778758128664
1488,24.00000000000003
1528,22.88437129579816
1568,22.511402523214487
1608,24.451736069259146
1648,23.392872913981156
2,1, 7,21, 0, 8, 0.00,10.00,SummerDesignDay
8,13.978831900527043
10,79560275.34709157
1762,6983389.5271067679
1799,89870429.51025945
2,1, 7,21, 0, 8,10.00,20.00,SummerDesignDay
8,14.110321014287419
10,79560275.34709157
1762,0.0
1799,67578687.43721584
2,1, 7,21, 0, 8,20.00,30.00,SummerDesignDay
8,14.241191509616986
10,79560275.34709157
1762,0.0
1799,80118484.82122208
2,1, 7,21, 0, 8,30.00,40.00,SummerDesignDay
8,14.371447531304272
10,79560275.34709157
1762,0.0
1799,82777776.48384689
2,1, 7,21, 0, 8,40.00,50.00,SummerDesignDay
8,14.501093766564925
10,79560275.34709157
1762,0.0
1799,87480469.3839693
2,1, 7,21, 0, 8,50.00,60.00,SummerDesignDay
8,14.630134792273804
10,79560275.34709157
1762,0.0
1799,93845974.53652363
2,1, 7,21, 0, 8, 0.00,60.00,SummerDesignDay
888,23.55451802911118
928,23.903685972240038
968,20.754182656964063
1008,22.45509920378932
1048,21.11868490821137
1088,22.125252149929126
1128,23.701372568276878
1168,21.728737099695178
1208,22.764955683424519
1248,20.313685589479065
1288,23.550027544146933
1328,24.00000000000001
1368,23.99999999954768
1408,24.000000000000019
1448,23.952983264286428
1488,24.000000000000019
1528,23.335219015631848
1568,23.486687875969527
1608,23.974286690494539
1648,23.59283303266542
2,1, 7,21, 0, 9, 0.00,10.00,SummerDesignDay
8,14.773641492809972
10,186550822.41505493
1762,40210954.00985989
1799,129229190.999171
2,1, 7,21, 0, 9,10.00,20.00,SummerDesignDay
8,14.91640948124148
10,186550822.41505493
1762,2455782.8505542
1799,150809912.08270089
2,1, 7,21, 0, 9,20.00,30.00,SummerDesignDay
8,15.05843890714102
10,186550822.41505493
1762,53417.59258828986
1799,170972989.11178849
2,1, 7,21, 0, 9,30.00,40.00,SummerDesignDay
8,15.199735893563798
10,186550822.41505493
1762,0.0
1799,192208283.19731153
2,1, 7,21, 0, 9,40.00,50.00,SummerDesignDay
8,15.340306256439395
10,186550822.41505493
1762,0.0
1799,212732991.0356062
2,1, 7,21, 0, 9,50.00,60.00,SummerDesignDay
8,15.48015101768072
10,186550822.41505493
1762,0.0
1799,236256984.47255997
2,1, 7,21, 0, 9, 0.00,60.00,SummerDesignDay
888,23.909079489050574
928,23.99999999999461
968,22.43031712768035
1008,23.95548853927036
1048,23.546169879173964
1088,23.07032166026875
1128,23.999999585346104
1168,22.89597668404416
1208,23.748711167022554
1248,22.239210131292155
1288,23.98995847329463
1328,24.000000000000015
1368,24.000000000000015
1408,24.000000000000005
1448,23.999999999999159
1488,24.0
1528,23.98395872228576
1568,24.979210817278945
1608,24.0
1648,23.983901139707496
2,1, 7,21, 0,10, 0.00,10.00,SummerDesignDay
8,15.60467292907716
10,281125785.3124208
1762,0.0
1799,321116800.1846359
2,1, 7,21, 0,10,10.00,20.00,SummerDesignDay
8,15.72862731650033
10,281125785.3124208
1762,0.0
1799,352624107.1262855
2,1, 7,21, 0,10,20.00,30.00,SummerDesignDay
8,15.852017409284228
10,281125785.3124208
1762,0.0
1799,375360817.74600169
2,1, 7,21, 0,10,30.00,40.00,SummerDesignDay
8,15.974848118364367
10,281125785.3124208
1762,0.0
1799,401387292.4502261
2,1, 7,21, 0,10,40.00,50.00,SummerDesignDay
8,16.097123145563505
10,281125785.3124208
1762,0.0
1799,426948702.72831389
2,1, 7,21, 0,10,50.00,60.00,SummerDesignDay
8,16.218846351168599
10,281125785.3124208
1762,0.0
1799,450412668.9620741
2,1, 7,21, 0,10, 0.00,60.00,SummerDesignDay
888,23.999999999924737
928,23.999999999999998
968,23.8273505574514
1008,23.99999999573455
1048,23.99999671783743
1088,23.980854370244356
1128,24.000000000000019
1168,23.99387531735782
1208,23.99999984818624
1248,23.694886723426796
1288,23.999999999999987
1328,24.000000000000015
1368,24.00000000000001
1408,23.999999999999998
1448,24.000000000000026
1488,24.000000000000005
1528,23.999999999999984
1568,26.915780442429094
1608,24.000000000000015
1648,23.999999999999774
2,1, 7,21, 0,11, 0.00,10.00,SummerDesignDay
8,16.325793027093189
10,283870762.46682819
1762,0.0
1799,509413691.95572838
2,1, 7,21, 0,11,10.00,20.00,SummerDesignDay
8,16.432322158488288
10,283870762.46682819
1762,0.0
1799,531572511.58632817
2,1, 7,21, 0,11,20.00,30.00,SummerDesignDay
8,16.538424180249178
10,283870762.46682819
1762,0.0
1799,552784559.0850005
2,1, 7,21, 0,11,30.00,40.00,SummerDesignDay
8,16.644108396469087
10,283870762.46682819
1762,0.0
1799,573234600.9391977
2,1, 7,21, 0,11,40.00,50.00,SummerDesignDay
8,16.749376736593655
10,283870762.46682819
1762,0.0
1799,593243161.10457
2,1, 7,21, 0,11,50.00,60.00,SummerDesignDay
8,16.854232613237156
10,283870762.46682819
1762,0.0
1799,612993336.5996271
2,1, 7,21, 0,11, 0.00,60.00,SummerDesignDay
888,24.000000000000015
928,24.000000000000033
968,23.99999924539127
1008,24.000000000000026
1048,23.999999999998768
1088,23.999999999993567
1128,24.000000000000019
1168,23.999999999693796
1208,23.999999999999998
1248,23.99999476393029
1288,24.000000000000026
1328,24.0
1368,24.000000000000033
1408,24.00000000000001
1448,24.000000000000005
1488,23.999999999999987
1528,24.000000000000026
1568,28.57538405324189
1608,23.999999999999955
1648,23.999999999999984
2,1, 7,21, 0,12, 0.00,10.00,SummerDesignDay
8,16.92390823520069
10,283870762.46682819
1762,0.0
1799,627297031.3497446
2,1, 7,21, 0,12,10.00,20.00,SummerDesignDay
8,16.99340178950456
10,283870762.46682819
1762,0.0
1799,641467065.8997543
2,1, 7,21, 0,12,20.00,30.00,SummerDesignDay
8,17.06272006743463
10,283870762.46682819
1762,0.0
1799,655570193.1421027
2,1, 7,21, 0,12,30.00,40.00,SummerDesignDay
8,17.131853229172639
10,283870762.46682819
1762,0.0
1799,669668923.3465623
2,1, 7,21, 0,12,40.00,50.00,SummerDesignDay
8,17.200807172194087
10,283870762.46682819
1762,0.0
1799,683735194.2284837
2,1, 7,21, 0,12,50.00,60.00,SummerDesignDay
8,17.269582116758607
10,283870762.46682819
1762,0.0
1799,697694384.3327533
2,1, 7,21, 0,12, 0.00,60.00,SummerDesignDay
888,24.000000000000005
928,24.000000000000069
968,23.999999999862444
1008,23.999999999999998
1048,24.000000000000026
1088,24.000000000000005
1128,24.0
1168,24.00000000000003
1208,23.99999999999999
1248,23.999999999063858
1288,23.999999999999987
1328,24.000000000000058
1368,24.0
1408,24.000000000000005
1448,24.0
1488,24.000000000000015
1528,24.00000000000003
1568,29.810846878012403
1608,24.00000000000008
1648,24.000000000000058
2,1, 7,21, 0,13, 0.00,10.00,SummerDesignDay
8,17.32447360221357
10,283870762.46682819
1762,0.0
1799,729158912.1173569
2,1, 7,21, 0,13,10.00,20.00,SummerDesignDay
8,17.379251291230806
10,283870762.46682819
1762,0.0
1799,741385273.8941014
2,1, 7,21, 0,13,20.00,30.00,SummerDesignDay
8,17.433921312061729
10,283870762.46682819
1762,0.0
1799,752610041.5305079
2,1, 7,21, 0,13,30.00,40.00,SummerDesignDay
8,17.488473222557489
10,283870762.46682819
1762,0.0
1799,763466191.5413611
2,1, 7,21, 0,13,40.00,50.00,SummerDesignDay
8,17.542913447755134
10,283870762.46682819
1762,0.0
1799,773680724.4201297
2,1, 7,21, 0,13,50.00,60.00,SummerDesignDay
8,17.59724609886134
10,283870762.46682819
1762,0.0
1799,783507115.2433782
2,1, 7,21, 0,13, 0.00,60.00,SummerDesignDay
888,24.000000000000005
928,24.000000000000019
968,23.999999999999984
1008,24.00000000000004
1048,24.00000000000001
1088,24.000000000000019
1128,23.99999999999999
1168,24.000000000000015
1208,24.000000000000026
1248,23.999999999999849
1288,24.000000000000069
1328,24.00000000000003
1368,24.00000000000003
1408,24.0
1448,24.000000000000015
1488,24.00000000000001
1528,24.000000000000033
1568,30.6690301093826
1608,24.000000000000044
1648,24.000000000000015
2,1, 7,21, 0,14, 0.00,10.00,SummerDesignDay
8,17.6311450462694
10,283870762.46682819
1762,0.0
1799,790221542.905659
2,1, 7,21, 0,14,10.00,20.00,SummerDesignDay
8,17.665000449016245
10,283870762.46682819
1762,0.0
1799,796746073.7473478
2,1, 7,21, 0,14,20.00,30.00,SummerDesignDay
8,17.698812743128934
10,283870762.46682819
1762,0.0
1799,803207202.0564355
2,1, 7,21, 0,14,30.00,40.00,SummerDesignDay
8,17.732582050940107
10,283870762.46682819
1762,0.0
1799,809661973.5364149
2,1, 7,21, 0,14,40.00,50.00,SummerDesignDay
8,17.766307345121004
10,283870762.46682819
1762,0.0
1799,816257922.5791758
2,1, 7,21, 0,14,50.00,60.00,SummerDesignDay
8,17.79999023167558
10,283870762.46682819
1762,0.0
1799,822917558.8955184
2,1, 7,21, 0,14, 0.00,60.00,SummerDesignDay
888,24.000000000000015
928,23.999999999999984
968,24.000000000000019
1008,23.99999999999999
1048,24.000000000000076
1088,23.999999999999984
1128,24.00000000000001
1168,23.999999999999998
1208,24.0
1248,24.000000000000015
1288,24.00000000000003
1328,24.000000000000026
1368,24.000000000000005
1408,24.00000000000003
1448,24.000000000000005
1488,24.000000000000015
1528,24.00000000000001
1568,31.20069682619174
1608,24.00000000000004
1648,24.000000000000044
2,1, 7,21, 0,15, 0.00,10.00,SummerDesignDay
8,17.79999023167558
10,283870762.46682819
1762,0.0
1799,1008443860.3798791
2,1, 7,21, 0,15,10.00,20.00,SummerDesignDay
8,17.79999023167558
10,283870762.46682819
1762,0.0
1799,886243333.6737918
2,1, 7,21, 0,15,20.00,30.00,SummerDesignDay
8,17.79999023167558
10,283870762.46682819
1762,0.0
1799,912871531.967374
2,1, 7,21, 0,15,30.00,40.00,SummerDesignDay
8,17.79999023167558
10,283870762.46682819
1762,0.0
1799,876053792.1754234
2,1, 7,21, 0,15,40.00,50.00,SummerDesignDay
8,17.79999023167558
10,283870762.46682819
1762,0.0
1799,876686256.4108056
2,1, 7,21, 0,15,50.00,60.00,SummerDesignDay
8,17.79999023167558
10,283870762.46682819
1762,0.0
1799,876145515.2398391
2,1, 7,21, 0,15, 0.00,60.00,SummerDesignDay
888,24.000000000000005
928,23.999999999999984
968,24.000000000000026
1008,23.999999999999976
1048,24.000000000000055
1088,24.000000000000019
1128,24.000000000000044
1168,24.0
1208,23.99999999999999
1248,24.0
1288,24.000000000000015
1328,23.999999999999987
1368,23.999999999999987
1408,23.99999999999999
1448,24.000000000000033
1488,24.000000000000015
1528,24.00000000000001
1568,23.940983443814458
1608,23.999999999999987
1648,24.000000000000044
2,1, 7,21, 0,16, 0.00,10.00,SummerDesignDay
8,17.759562446305357
10,291648197.7388602
1762,0.0
1799,877388624.9542208
2,1, 7,21, 0,16,10.00,20.00,SummerDesignDay
8,17.71907809634183
10,291648197.7388602
1762,0.0
1799,871819619.5274801
2,1, 7,21, 0,16,20.00,30.00,SummerDesignDay
8,17.67853788661001
10,291648197.7388602
1762,0.0
1799,865333701.2914286
2,1, 7,21, 0,16,30.00,40.00,SummerDesignDay
8,17.63791796367351
10,291648197.7388602
1762,0.0
1799,858557846.8986502
2,1, 7,21, 0,16,40.00,50.00,SummerDesignDay
8,17.59724609886134
10,291648197.7388602
1762,0.0
1799,851470996.6206153
2,1, 7,21, 0,16,50.00,60.00,SummerDesignDay
8,17.55650676726033
10,291648197.7388602
1762,0.0
1799,844103997.0272259
2,1, 7,21, 0,16, 0.00,60.00,SummerDesignDay
888,23.999999999999998
928,24.000000000000047
968,24.00000000000001
1008,24.00000000000003
1048,24.00000000000003
1088,24.0
1128,24.000000000000019
1168,24.000000000000019
1208,24.000000000000019
1248,24.0
1288,24.000000000000015
1328,24.00000000000003
1368,23.999999999999998
1408,24.00000000000003
1448,24.000000000000015
1488,23.99999999999997
1528,24.00000000000001
1568,23.999999999999984
1608,23.999999999999969
1648,24.000000000000033
2,1, 7,21, 0,17, 0.00,10.00,SummerDesignDay
8,17.50209486331892
10,284297508.9148185
1762,0.0
1799,836691357.5407186
2,1, 7,21, 0,17,10.00,20.00,SummerDesignDay
8,17.447570789624618
10,284297508.9148185
1762,0.0
1799,827084199.0491723
2,1, 7,21, 0,17,20.00,30.00,SummerDesignDay
8,17.392929544208135
10,284297508.9148185
1762,0.0
1799,817410268.6307662
2,1, 7,21, 0,17,30.00,40.00,SummerDesignDay
8,17.33818013976614
10,284297508.9148185
1762,0.0
1799,807543742.9476767
2,1, 7,21, 0,17,40.00,50.00,SummerDesignDay
8,17.283317298559309
10,284297508.9148185
1762,0.0
1799,797433829.9381906
2,1, 7,21, 0,17,50.00,60.00,SummerDesignDay
8,17.22833552437677
10,284297508.9148185
1762,0.0
1799,786617804.3083197
2,1, 7,21, 0,17, 0.00,60.00,SummerDesignDay
888,24.0
928,24.00000000000004
968,24.0
1008,23.999999999999976
1048,23.999999999999998
1088,24.000000000000015
1128,24.00000000000001
1168,24.00000000000001
1208,24.0
1248,24.0
1288,23.999999999999987
1328,24.000000000000044
1368,24.00000000000001
1408,24.00000000000003
1448,24.000000000000047
1488,24.0
1528,24.00000000000003
1568,24.00000000000001
1608,24.000000000000044
1648,24.00000000000001
2,1, 7,21, 0,18, 0.00,10.00,SummerDesignDay
8,17.159453019160176
10,274213092.8419161
1762,0.0
1799,750089020.5270137
2,1, 7,21, 0,18,10.00,20.00,SummerDesignDay
8,17.090391773337136
10,274213092.8419161
1762,0.0
1799,734988820.9743565
2,1, 7,21, 0,18,20.00,30.00,SummerDesignDay
8,17.021151077964786
10,274213092.8419161
1762,0.0
1799,720092441.4591706
2,1, 7,21, 0,18,30.00,40.00,SummerDesignDay
8,16.951729380464653
10,274213092.8419161
1762,0.0
1799,705298304.0100664
2,1, 7,21, 0,18,40.00,50.00,SummerDesignDay
8,16.882126503829249
10,274213092.8419161
1762,0.0
1799,690706220.8008776
2,1, 7,21, 0,18,50.00,60.00,SummerDesignDay
8,16.812341807494034
10,274213092.8419161
1762,0.0
1799,676179010.6368485
2,1, 7,21, 0,18, 0.00,60.00,SummerDesignDay
888,24.000000000000015
928,24.00000000000001
968,24.0
1008,23.99999999999999
1048,23.99999999999996
1088,24.00000000000001
1128,24.000000000000019
1168,24.000000000000015
1208,24.0
1248,24.00000000000001
1288,24.000000000000047
1328,24.00000000000003
1368,24.00000000000003
1408,24.0
1448,24.0
1488,24.0
1528,24.000000000000019
1568,24.000000000000015
1608,24.00000000000001
1648,24.00000000000003
2,1, 7,21, 0,19, 0.00,10.00,SummerDesignDay
8,16.707321072823203
10,259509465.21587179
1762,0.0
1799,624134330.8638045
2,1, 7,21, 0,19,10.00,20.00,SummerDesignDay
8,16.601881826644556
10,259509465.21587179
1762,0.0
1799,603107834.0601875
2,1, 7,21, 0,19,20.00,30.00,SummerDesignDay
8,16.496030555252849
10,259509465.21587179
1762,0.0
1799,582595610.3000379
2,1, 7,21, 0,19,30.00,40.00,SummerDesignDay
8,16.389760181474104
10,259509465.21587179
1762,0.0
1799,561978372.2053585
2,1, 7,21, 0,19,40.00,50.00,SummerDesignDay
8,16.283067654262039
10,259509465.21587179
1762,0.0
1799,540427268.2958576
2,1, 7,21, 0,19,50.00,60.00,SummerDesignDay
8,16.17595057957811
10,259509465.21587179
1762,0.0
1799,519043032.51037916
2,1, 7,21, 0,19, 0.00,60.00,SummerDesignDay
888,24.00000000000001
928,24.000000000000069
968,24.00000000000001
1008,23.99999999999997
1048,24.000000000000015
1088,24.0
1128,24.000000000000033
1168,24.000000000000019
1208,23.999999999999987
1248,24.00000000000001
1288,23.999999999999998
1328,23.99999999999999
1368,23.99999999999999
1408,23.999999999999969
1448,24.000000000000033
1488,24.0
1528,24.000000000000015
1568,24.000000000000015
1608,24.0
1648,24.0
2,1, 7,21, 0,20, 0.00,10.00,SummerDesignDay
8,16.097123145563505
10,207272399.96142746
1762,0.0
1799,449606903.7455716
2,1, 7,21, 0,20,10.00,20.00,SummerDesignDay
8,16.018070242471564
10,207272399.96142746
1762,0.0
1799,430137875.0899756
2,1, 7,21, 0,20,20.00,30.00,SummerDesignDay
8,15.938779752340516
10,207272399.96142746
1762,0.0
1799,412921193.86674657
2,1, 7,21, 0,20,30.00,40.00,SummerDesignDay
8,15.85926152575189
10,207272399.96142746
1762,0.0
1799,395594456.1059469
2,1, 7,21, 0,20,40.00,50.00,SummerDesignDay
8,15.779503718563929
10,207272399.96142746
1762,0.0
1799,378055658.12593039
2,1, 7,21, 0,20,50.00,60.00,SummerDesignDay
8,15.699515709672767
10,207272399.96142746
1762,0.0
1799,360110408.4197655
2,1, 7,21, 0,20, 0.00,60.00,SummerDesignDay
888,24.000000000000005
928,24.00000000000001
968,23.999999999999987
1008,24.00000000000001
1048,24.000000000000044
1088,24.43884981668245
1128,24.000000000000005
1168,23.99999999999999
1208,24.000000000000005
1248,24.000000000000015
1288,24.000000000000026
1328,24.00000000000004
1368,24.000000000000026
1408,24.00000000000004
1448,24.000000000000015
1488,23.999999999999987
1528,24.00000000000001
1568,24.00000000000006
1608,24.000000000000033
1648,24.00000000000003
2,1, 7,21, 0,21, 0.00,10.00,SummerDesignDay
8,15.63389147320404
10,191206033.67430166
1762,0.0
1799,334584708.7022844
2,1, 7,21, 0,21,10.00,20.00,SummerDesignDay
8,15.56810827419793
10,191206033.67430166
1762,0.0
1799,318709194.8667712
2,1, 7,21, 0,21,20.00,30.00,SummerDesignDay
8,15.502170882753524
10,191206033.67430166
1762,0.0
1799,303567045.6395103
2,1, 7,21, 0,21,30.00,40.00,SummerDesignDay
8,15.436068032613852
10,191206033.67430166
1762,0.0
1799,289006052.21213576
2,1, 7,21, 0,21,40.00,50.00,SummerDesignDay
8,15.369804371206009
10,191206033.67430166
1762,0.0
1799,276520494.97619119
2,1, 7,21, 0,21,50.00,60.00,SummerDesignDay
8,15.303384603594449
10,191206033.67430166
1762,0.0
1799,263483383.9595648
2,1, 7,21, 0,21, 0.00,60.00,SummerDesignDay
888,24.000000000000005
928,23.999999999999998
968,23.959774744795579
1008,24.00000000000001
1048,23.999999999999984