Program Version,EnergyPlus, Version 8.9.0-eba93e8e1b, YMD=2019.04.04 17:58
1,5,Environment Title[],Latitude[deg],Longitude[deg],Time Zone[],Elevation[m]
2,8,Day of Simulation[],Month[],Day of Month[],DST Indicator[1=yes 0=no],Hour[],StartMinute[],EndMinute[],DayType
3,5,Cumulative Day of Simulation[],Month[],Day of Month[],DST Indicator[1=yes 0=no],DayType  ! When Daily Report Variables Requested
4,2,Cumulative Days of Simulation[],Month[]  ! When Monthly Report Variables Requested
5,1,Cumulative Days of Simulation[] ! When Run Period Report Variables Requested
6,1,Calendar Year of Simulation[] ! When Annual Report Variables Requested
7,9,Environment,Site Outdoor Air Drybulb Temperature [C] !Monthly [Value,Min,Day,Hour,Minute,Max,Day,Hour,Minute]
8,1,Environment,Site Outdoor Air Wetbulb Temperature [C] !TimeStep
357,1,WHOLEBUILDING-DINING - FAMILY ZN,Zone Air Temperature [C] !Hourly
358,7,WHOLEBUILDING-DINING - FAMILY ZN,Zone Air Relative Humidity [%] !Daily [Value,Min,Hour,Minute,Max,Hour,Minute]
397,1,WHOLEBUILDING-DORMITORY ZN,Zone Air Temperature [C] !Hourly
398,7,WHOLEBUILDING-DORMITORY ZN,Zone Air Relative Humidity [%] !Daily [Value,Min,Hour,Minute,Max,Hour,Minute]
437,1,WHOLEBUILDING-EXERCISE CENTRE ZN,Zone Air Temperature [C] !Hourly
438,7,WHOLEBUILDING-EXERCISE CENTRE ZN,Zone Air Relative Humidity [%] !Daily [Value,Min,Hour,Minute,Max,Hour,Minute]
477,1,WHOLEBUILDING-FIRE STATION ZN,Zone Air Temperature [C] !Hourly
478,7,WHOLEBUILDING-FIRE STATION ZN,Zone Air Relative Humidity [%] !Daily [Value,Min,Hour,Minute,Max,Hour,Minute]
517,1,WHOLEBUILDING-GYMNASIUM ZN,Zone Air Temperature [C] !Hourly
518,7,WHOLEBUILDING-GYMNASIUM ZN,Zone Air Relative Humidity [%] !Daily [Value,Min,Hour,Minute,Max,Hour,Minute]
10,1,Electricity:Facility [J] !TimeStep
668,1,DistrictCooling:Facility [J] !TimeStep
631,1,DistrictHeating:Facility [J] !TimeStep
End of Data Dictionary
1,FORT MCMURRAY AP ANN CLG .4% CONDNS DB=>MWB,  56.65,-111.22,  -7.00, 369.10
2,1, 7,21, 0, 1, 0.00,10.00,SummerDesignDay
8,14.218136923962174
10,43368389.072090629
631,0.0
668,4850011.394013456
2,1, 7,21, 0, 1,10.00,20.00,SummerDesignDay
8,14.171982153293495
10,43368389.072090629
631,0.0
668,3273623.2500044887
2,1, 7,21, 0, 1,20.00,30.00,SummerDesignDay
8,14.125744780286427
10,43368389.072090629
631,0.0
668,2521898.5633731635
2,1, 7,21, 0, 1,30.00,40.00,SummerDesignDay
8,14.079436086331978
10,43368389.072090629
631,0.0
668,2054384.1655865282
2,1, 7,21, 0, 1,40.00,50.00,SummerDesignDay
8,14.033050387896898
10,43368389.072090629
631,0.0
668,1602957.961130057
2,1, 7,21, 0, 1,50.00,60.00,SummerDesignDay
8,13.986581233564835
10,43368389.072090629
631,0.0
668,1161446.8858107418
2,1, 7,21, 0, 1, 0.00,60.00,SummerDesignDay
357,23.964026933817484
397,24.0
437,23.967158576216375
477,23.77735799853427
517,24.000000000000015
2,1, 7,21, 0, 2, 0.00,10.00,SummerDesignDay
8,13.95555882260429
10,23328555.85121325
631,0.0
668,0.0
2,1, 7,21, 0, 2,10.00,20.00,SummerDesignDay
8,13.924507755336454
10,23328555.85121325
631,0.0
668,0.0
2,1, 7,21, 0, 2,20.00,30.00,SummerDesignDay
8,13.893416042989206
10,23328555.85121325
631,0.0
668,0.0
2,1, 7,21, 0, 2,30.00,40.00,SummerDesignDay
8,13.862289589689029
10,23328555.85121325
631,0.0
668,0.0
2,1, 7,21, 0, 2,40.00,50.00,SummerDesignDay
8,13.831134407608739
10,23328555.85121325
631,0.0
668,0.0
2,1, 7,21, 0, 2,50.00,60.00,SummerDesignDay
8,13.799938415548118
10,23328555.85121325
631,0.0
668,0.0
2,1, 7,21, 0, 2, 0.00,60.00,SummerDesignDay
357,23.009886029770049
397,23.74385191336928
437,23.00342844261233
477,23.273657839376907
517,23.148475062577594
2,1, 7,21, 0, 3, 0.00,10.00,SummerDesignDay
8,13.776521671948676
10,6933692.2950799
631,0.0
668,0.0
2,1, 7,21, 0, 3,10.00,20.00,SummerDesignDay
8,13.753085235778466
10,6933692.2950799
631,0.0
668,0.0
2,1, 7,21, 0, 3,20.00,30.00,SummerDesignDay
8,13.729636002354969
10,6933692.2950799
631,0.0
668,0.0
2,1, 7,21, 0, 3,30.00,40.00,SummerDesignDay
8,13.706147375533054
10,6933692.2950799
631,0.0
668,0.0
2,1, 7,21, 0, 3,40.00,50.00,SummerDesignDay
8,13.682651961920304
10,6933692.2950799
631,0.0
668,0.0
2,1, 7,21, 0, 3,50.00,60.00,SummerDesignDay
8,13.659136670643687
10,6933692.2950799
631,0.0
668,0.0
2,1, 7,21, 0, 3, 0.00,60.00,SummerDesignDay
357,21.27755386671397
397,23.224877078556835
437,21.247828332778199
477,22.721802469179733
517,21.348710835496595
2,1, 7,21, 0, 4, 0.00,10.00,SummerDesignDay
8,13.63560137410855
10,5797451.75130975
631,0.0
668,0.0
2,1, 7,21, 0, 4,10.00,20.00,SummerDesignDay
8,13.612040802606578
10,5797451.75130975
631,0.0
668,0.0
2,1, 7,21, 0, 4,20.00,30.00,SummerDesignDay
8,13.58846620506876
10,5797451.75130975
631,0.0
668,0.0
2,1, 7,21, 0, 4,30.00,40.00,SummerDesignDay
8,13.56487178447336
10,5797451.75130975
631,0.0
668,0.0
2,1, 7,21, 0, 4,40.00,50.00,SummerDesignDay
8,13.541257354069103
10,5797451.75130975
631,0.0
668,0.0
2,1, 7,21, 0, 4,50.00,60.00,SummerDesignDay
8,13.517617463812285
10,5797451.75130975
631,0.0
668,0.0
2,1, 7,21, 0, 4, 0.00,60.00,SummerDesignDay
357,20.131781018497848
397,22.6833805777421
437,20.117746459677276
477,22.035534840529939
517,20.17329069314293
2,1, 7,21, 0, 5, 0.00,10.00,SummerDesignDay
8,13.50185415824011
10,5797451.75130975
631,0.0
668,0.0
2,1, 7,21, 0, 5,10.00,20.00,SummerDesignDay
8,13.486076034032447
10,5797451.75130975
631,0.0
668,0.0
2,1, 7,21, 0, 5,20.00,30.00,SummerDesignDay
8,13.470289340350983
10,5797451.75130975
631,0.0
668,0.0
2,1, 7,21, 0, 5,30.00,40.00,SummerDesignDay
8,13.454493322631063
10,5797451.75130975
631,0.0
668,0.0
2,1, 7,21, 0, 5,40.00,50.00,SummerDesignDay
8,13.438688835118548
10,5797451.75130975
631,0.0
668,0.0
2,1, 7,21, 0, 5,50.00,60.00,SummerDesignDay
8,13.422888173889437
10,5797451.75130975
631,0.0
668,0.0
2,1, 7,21, 0, 5, 0.00,60.00,SummerDesignDay
357,19.579020500565773
397,22.26806247844165
437,19.59520039631787
477,21.504162623337764
517,19.639364860444635
2,1, 7,21, 0, 6, 0.00,10.00,SummerDesignDay
8,13.438688835118548
10,5797451.75130975
631,0.0
668,0.0
2,1, 7,21, 0, 6,10.00,20.00,SummerDesignDay
8,13.454493322631063
10,5797451.75130975
631,0.0
668,0.0
2,1, 7,21, 0, 6,20.00,30.00,SummerDesignDay
8,13.470289340350983
10,5797451.75130975
631,0.0
668,0.0
2,1, 7,21, 0, 6,30.00,40.00,SummerDesignDay
8,13.486076034032447
10,5797451.75130975
631,0.0
668,0.0
2,1, 7,21, 0, 6,40.00,50.00,SummerDesignDay
8,13.50185415824011
10,5797451.75130975
631,0.0
668,0.0
2,1, 7,21, 0, 6,50.00,60.00,SummerDesignDay
8,13.517617463812285
10,5797451.75130975
631,0.0
668,0.0
2,1, 7,21, 0, 6, 0.00,60.00,SummerDesignDay
357,19.31136727842225
397,22.00524603123293
437,19.346994598397815
477,21.23953580812499
517,19.38745383646759
2,1, 7,21, 0, 7, 0.00,10.00,SummerDesignDay
8,13.572736920571789
10,8418679.936227056
631,0.0
668,0.0
2,1, 7,21, 0, 7,10.00,20.00,SummerDesignDay
8,13.627748229152554
10,8418679.936227056
631,0.0
668,0.0
2,1, 7,21, 0, 7,20.00,30.00,SummerDesignDay
8,13.682651961920304
10,8418679.936227056
631,0.0
668,0.0
2,1, 7,21, 0, 7,30.00,40.00,SummerDesignDay
8,13.737448093244995
10,8418679.936227056
631,0.0
668,0.0
2,1, 7,21, 0, 7,40.00,50.00,SummerDesignDay
8,13.792137011831216
10,8418679.936227056
631,0.0
668,0.0
2,1, 7,21, 0, 7,50.00,60.00,SummerDesignDay
8,13.846719282840333
10,8418679.936227056
631,0.0
668,0.0
2,1, 7,21, 0, 7, 0.00,60.00,SummerDesignDay
357,19.370477126071994
397,22.145107668819109
437,19.415009793067843
477,21.396900873507606
517,19.45413407933718
2,1, 7,21, 0, 8, 0.00,10.00,SummerDesignDay
8,13.978831900527043
10,14606128.441006873
631,0.0
668,0.0
2,1, 7,21, 0, 8,10.00,20.00,SummerDesignDay
8,14.110321014287419
10,14606128.441006873
631,0.0
668,0.0
2,1, 7,21, 0, 8,20.00,30.00,SummerDesignDay
8,14.241191509616986
10,14606128.441006873
631,0.0
668,0.0
2,1, 7,21, 0, 8,30.00,40.00,SummerDesignDay
8,14.371447531304272
10,14606128.441006873
631,0.0
668,0.0
2,1, 7,21, 0, 8,40.00,50.00,SummerDesignDay
8,14.501093766564925
10,14606128.441006873
631,0.0
668,0.0
2,1, 7,21, 0, 8,50.00,60.00,SummerDesignDay
8,14.630134792273804
10,14606128.441006873
631,0.0
668,0.0
2,1, 7,21, 0, 8, 0.00,60.00,SummerDesignDay
357,19.903114809188926
397,23.036650269912575
437,19.947332618936874
477,22.083649984538356
517,19.985843969039597
2,1, 7,21, 0, 9, 0.00,10.00,SummerDesignDay
8,14.773641492809972
10,15742368.98477702
631,0.0
668,0.0
2,1, 7,21, 0, 9,10.00,20.00,SummerDesignDay
8,14.91640948124148
10,15742368.98477702
631,0.0
668,0.0
2,1, 7,21, 0, 9,20.00,30.00,SummerDesignDay
8,15.05843890714102
10,15742368.98477702
631,0.0
668,0.0
2,1, 7,21, 0, 9,30.00,40.00,SummerDesignDay
8,15.199735893563798
10,15742368.98477702
631,0.0
668,1418617.5608013794
2,1, 7,21, 0, 9,40.00,50.00,SummerDesignDay
8,15.340306256439395
10,15742368.98477702
631,0.0
668,2552081.5397771249
2,1, 7,21, 0, 9,50.00,60.00,SummerDesignDay
8,15.48015101768072
10,15742368.98477702
631,0.0
668,2279151.968810929
2,1, 7,21, 0, 9, 0.00,60.00,SummerDesignDay
357,21.004902789434593
397,23.90357335425757
437,21.040138276711013
477,23.06438969869268
517,21.07807521606208
2,1, 7,21, 0,10, 0.00,10.00,SummerDesignDay
8,15.60467292907716
10,26163532.257259817
631,14478737.312255754
668,0.0
2,1, 7,21, 0,10,10.00,20.00,SummerDesignDay
8,15.72862731650033
10,26163532.257259817
631,0.0
668,0.0
2,1, 7,21, 0,10,20.00,30.00,SummerDesignDay
8,15.852017409284228
10,26163532.257259817
631,0.0
668,0.0
2,1, 7,21, 0,10,30.00,40.00,SummerDesignDay
8,15.974848118364367
10,26163532.257259817
631,0.0
668,2482777.795637151
2,1, 7,21, 0,10,40.00,50.00,SummerDesignDay
8,16.097123145563505
10,26163532.257259817
631,0.0
668,4132974.2686366655
2,1, 7,21, 0,10,50.00,60.00,SummerDesignDay
8,16.218846351168599
10,26163532.257259817
631,0.0
668,19182339.76893557
2,1, 7,21, 0,10, 0.00,60.00,SummerDesignDay
357,23.239628709977116
397,23.836828646758673
437,23.251501896506864
477,23.856801570054956
517,23.2977855839552
2,1, 7,21, 0,11, 0.00,10.00,SummerDesignDay
8,16.325793027093189
10,34360964.035326499
631,0.0
668,33685334.14064354
2,1, 7,21, 0,11,10.00,20.00,SummerDesignDay
8,16.432322158488288
10,34360964.035326499
631,0.0
668,36109630.11352265
2,1, 7,21, 0,11,20.00,30.00,SummerDesignDay
8,16.538424180249178
10,34360964.035326499
631,0.0
668,42324287.09190355
2,1, 7,21, 0,11,30.00,40.00,SummerDesignDay
8,16.644108396469087
10,34360964.035326499
631,0.0
668,47064448.09790671
2,1, 7,21, 0,11,40.00,50.00,SummerDesignDay
8,16.749376736593655
10,34360964.035326499
631,0.0
668,50644191.27315879
2,1, 7,21, 0,11,50.00,60.00,SummerDesignDay
8,16.854232613237156
10,34360964.035326499
631,0.0
668,54615435.990968737
2,1, 7,21, 0,11, 0.00,60.00,SummerDesignDay
357,23.999837231370426
397,23.97335327390898
437,23.999890209009057
477,23.999999998985588
517,23.999991502817467
2,1, 7,21, 0,12, 0.00,10.00,SummerDesignDay
8,16.92390823520069
10,41422155.26962302
631,0.0
668,68776737.5697538
2,1, 7,21, 0,12,10.00,20.00,SummerDesignDay
8,16.99340178950456
10,41422155.26962302
631,0.0
668,71811166.36146406
2,1, 7,21, 0,12,20.00,30.00,SummerDesignDay
8,17.06272006743463
10,41422155.26962302
631,0.0
668,73784476.04446244
2,1, 7,21, 0,12,30.00,40.00,SummerDesignDay
8,17.131853229172639
10,41422155.26962302
631,0.0
668,75809365.64657259
2,1, 7,21, 0,12,40.00,50.00,SummerDesignDay
8,17.200807172194087
10,41422155.26962302
631,0.0
668,77742467.27601148
2,1, 7,21, 0,12,50.00,60.00,SummerDesignDay
8,17.269582116758607
10,41422155.26962302
631,0.0
668,79615551.91909133
2,1, 7,21, 0,12, 0.00,60.00,SummerDesignDay
357,23.99999999992806
397,23.99999999985585
437,23.999999999957998
477,24.0
517,23.999999999996903
2,1, 7,21, 0,13, 0.00,10.00,SummerDesignDay
8,17.32447360221357
10,40285914.72585288
631,0.0
668,89233240.52781926
2,1, 7,21, 0,13,10.00,20.00,SummerDesignDay
8,17.379251291230806
10,40285914.72585288
631,0.0
668,91033108.23815143
2,1, 7,21, 0,13,20.00,30.00,SummerDesignDay
8,17.433921312061729
10,40285914.72585288
631,0.0
668,92414974.79948244
2,1, 7,21, 0,13,30.00,40.00,SummerDesignDay
8,17.488473222557489
10,40285914.72585288
631,0.0
668,93848649.26143068
2,1, 7,21, 0,13,40.00,50.00,SummerDesignDay
8,17.542913447755134
10,40285914.72585288
631,0.0
668,95239750.96975842
2,1, 7,21, 0,13,50.00,60.00,SummerDesignDay
8,17.59724609886134
10,40285914.72585288
631,0.0
668,96611404.02600801
2,1, 7,21, 0,13, 0.00,60.00,SummerDesignDay
357,24.0
397,24.0
437,24.0
477,24.000000000000005
517,24.000000000000019
2,1, 7,21, 0,14, 0.00,10.00,SummerDesignDay
8,17.6311450462694
10,40285914.72585288
631,0.0
668,95247384.48765597
2,1, 7,21, 0,14,10.00,20.00,SummerDesignDay
8,17.665000449016245
10,40285914.72585288
631,0.0
668,95944924.02227906
2,1, 7,21, 0,14,20.00,30.00,SummerDesignDay
8,17.698812743128934
10,40285914.72585288
631,0.0
668,96744786.20478118
2,1, 7,21, 0,14,30.00,40.00,SummerDesignDay
8,17.732582050940107
10,40285914.72585288
631,0.0
668,97529283.63574668
2,1, 7,21, 0,14,40.00,50.00,SummerDesignDay
8,17.766307345121004
10,40285914.72585288
631,0.0
668,98275055.72645492
2,1, 7,21, 0,14,50.00,60.00,SummerDesignDay
8,17.79999023167558
10,40285914.72585288
631,0.0
668,99014143.17579666
2,1, 7,21, 0,14, 0.00,60.00,SummerDesignDay
357,23.999999999999969
397,24.000000000000005
437,24.00000000000001
477,24.0
517,24.000000000000019
2,1, 7,21, 0,15, 0.00,10.00,SummerDesignDay
8,17.79999023167558
10,40285914.72585288
631,0.0
668,92244991.65564075
2,1, 7,21, 0,15,10.00,20.00,SummerDesignDay
8,17.79999023167558
10,40285914.72585288
631,0.0
668,91927888.08593935
2,1, 7,21, 0,15,20.00,30.00,SummerDesignDay
8,17.79999023167558
10,40285914.72585288
631,0.0
668,91928103.66672051
2,1, 7,21, 0,15,30.00,40.00,SummerDesignDay
8,17.79999023167558
10,40285914.72585288
631,0.0
668,91891988.25835759
2,1, 7,21, 0,15,40.00,50.00,SummerDesignDay
8,17.79999023167558
10,40285914.72585288
631,0.0
668,91855753.3390209
2,1, 7,21, 0,15,50.00,60.00,SummerDesignDay
8,17.79999023167558
10,40285914.72585288
631,0.0
668,91824801.09233165
2,1, 7,21, 0,15, 0.00,60.00,SummerDesignDay
357,24.00000000000001
397,24.0
437,24.000000000000015
477,24.0
517,23.999999999999998
2,1, 7,21, 0,16, 0.00,10.00,SummerDesignDay
8,17.759562446305357
10,40285914.72585288
631,0.0
668,84115544.63036826
2,1, 7,21, 0,16,10.00,20.00,SummerDesignDay
8,17.71907809634183
10,40285914.72585288
631,0.0
668,82878756.22353709
2,1, 7,21, 0,16,20.00,30.00,SummerDesignDay
8,17.67853788661001
10,40285914.72585288
631,0.0
668,81935780.56792654
2,1, 7,21, 0,16,30.00,40.00,SummerDesignDay
8,17.63791796367351
10,40285914.72585288
631,0.0
668,80954585.76380982
2,1, 7,21, 0,16,40.00,50.00,SummerDesignDay
8,17.59724609886134
10,40285914.72585288
631,0.0
668,79962691.17636836
2,1, 7,21, 0,16,50.00,60.00,SummerDesignDay
8,17.55650676726033
10,40285914.72585288
631,0.0
668,78960440.57434644
2,1, 7,21, 0,16, 0.00,60.00,SummerDesignDay
357,23.999999999999984
397,24.0
437,24.00000000000001
477,24.0
517,24.000000000000015
2,1, 7,21, 0,17, 0.00,10.00,SummerDesignDay
8,17.50209486331892
10,40567162.38510601
631,0.0
668,78241647.30022773
2,1, 7,21, 0,17,10.00,20.00,SummerDesignDay
8,17.447570789624618
10,40567162.38510601
631,0.0
668,76984356.62062297
2,1, 7,21, 0,17,20.00,30.00,SummerDesignDay
8,17.392929544208135
10,40567162.38510601
631,0.0
668,75706672.46030596
2,1, 7,21, 0,17,30.00,40.00,SummerDesignDay
8,17.33818013976614
10,40567162.38510601
631,0.0
668,74427855.7951203
2,1, 7,21, 0,17,40.00,50.00,SummerDesignDay
8,17.283317298559309
10,40567162.38510601
631,0.0
668,73151755.55828516
2,1, 7,21, 0,17,50.00,60.00,SummerDesignDay
8,17.22833552437677
10,40567162.38510601
631,0.0
668,71876256.06099198
2,1, 7,21, 0,17, 0.00,60.00,SummerDesignDay
357,23.999999999999998
397,24.000000000000005
437,24.0
477,24.0
517,24.000000000000033
2,1, 7,21, 0,18, 0.00,10.00,SummerDesignDay
8,17.159453019160176
10,39723419.40734662
631,0.0
668,73043384.85006109
2,1, 7,21, 0,18,10.00,20.00,SummerDesignDay
8,17.090391773337136
10,39723419.40734662
631,0.0
668,71556681.01626504
2,1, 7,21, 0,18,20.00,30.00,SummerDesignDay
8,17.021151077964786
10,39723419.40734662
631,0.0
668,69967863.29333979
2,1, 7,21, 0,18,30.00,40.00,SummerDesignDay
8,16.951729380464653
10,39723419.40734662
631,0.0
668,68389767.40517509
2,1, 7,21, 0,18,40.00,50.00,SummerDesignDay
8,16.882126503829249
10,39723419.40734662
631,0.0
668,66812800.60634749
2,1, 7,21, 0,18,50.00,60.00,SummerDesignDay
8,16.812341807494034
10,39723419.40734662
631,0.0
668,65234422.37889856
2,1, 7,21, 0,18, 0.00,60.00,SummerDesignDay
357,24.0
397,24.000000000000005
437,24.000000000000005
477,24.0
517,23.999999999999998
2,1, 7,21, 0,19, 0.00,10.00,SummerDesignDay
8,16.707321072823203
10,41692153.02211853
631,0.0
668,72508377.36782788
2,1, 7,21, 0,19,10.00,20.00,SummerDesignDay
8,16.601881826644556
10,41692153.02211853
631,0.0
668,70517631.29983594
2,1, 7,21, 0,19,20.00,30.00,SummerDesignDay
8,16.496030555252849
10,41692153.02211853
631,0.0
668,68287308.1160539
2,1, 7,21, 0,19,30.00,40.00,SummerDesignDay
8,16.389760181474104
10,41692153.02211853
631,0.0
668,66081182.63770494
2,1, 7,21, 0,19,40.00,50.00,SummerDesignDay
8,16.283067654262039
10,41692153.02211853
631,0.0
668,63852059.60701527
2,1, 7,21, 0,19,50.00,60.00,SummerDesignDay
8,16.17595057957811
10,41692153.02211853
631,0.0
668,61597820.69890915
2,1, 7,21, 0,19, 0.00,60.00,SummerDesignDay
357,24.0
397,24.0
437,24.000000000000005
477,24.000000000000005
517,24.000000000000019
2,1, 7,21, 0,20, 0.00,10.00,SummerDesignDay
8,16.097123145563505
10,52919559.582361329
631,0.0
668,74673217.71131027
2,1, 7,21, 0,20,10.00,20.00,SummerDesignDay
8,16.018070242471564
10,52919559.582361329
631,0.0
668,75782005.29462081
2,1, 7,21, 0,20,20.00,30.00,SummerDesignDay
8,15.938779752340516
10,52919559.582361329
631,0.0
668,74147072.16518243
2,1, 7,21, 0,20,30.00,40.00,SummerDesignDay
8,15.85926152575189
10,52919559.582361329
631,0.0
668,72811537.43130589
2,1, 7,21, 0,20,40.00,50.00,SummerDesignDay
8,15.779503718563929
10,52919559.582361329
631,0.0
668,71362707.35537553
2,1, 7,21, 0,20,50.00,60.00,SummerDesignDay
8,15.699515709672767
10,52919559.582361329
631,0.0
668,69860025.38653511
2,1, 7,21, 0,20, 0.00,60.00,SummerDesignDay
357,24.00000000000001
397,24.000000000000005
437,24.000000000000033
477,24.0
517,24.000000000000026
2,1, 7,21, 0,21, 0.00,10.00,SummerDesignDay
8,15.63389147320404
10,54629545.35139537
631,0.0
668,70996829.106867
2,1, 7,21, 0,21,10.00,20.00,SummerDesignDay
8,15.56810827419793
10,54629545.35139537
631,0.0
668,70001544.25495786
2,1, 7,21, 0,21,20.00,30.00,SummerDesignDay
8,15.502170882753524
10,54629545.35139537
631,0.0
668,68783005.37492791
2,1, 7,21, 0,21,30.00,40.00,SummerDesignDay
8,15.436068032613852
10,54629545.35139537
631,0.0
668,67469539.17666063
2,1, 7,21, 0,21,40.00,50.00,SummerDesignDay
8,15.369804371206009
10,54629545.35139537
631,0.0
668,65876682.00078836
2,1, 7,21, 0,21,50.00,60.00,SummerDesignDay
8,15.303384603594449
10,54629545.35139537
631,0.0
668,64245973.54572304
2,1, 7,21, 0,21, 0.00,60.00,SummerDesignDay
357,24.00000000000001
397,24.000000000000019
437,24.000000000000015
477,24.0
517,24.000000000000019
2,1, 7,21, 0,22, 0.00,10.00,SummerDesignDay
8,15.236797685071274
10,55203290.576659258
631,0.0
668,63134265.83607907
2,1, 7,21, 0,22,10.00,20.00,SummerDesignDay
8,15.170047891787942
10,55203290.576659258
631,0.0
668,61572470.25168787
2,1, 7,21, 0,22,20.00,30.00,SummerDesignDay
8,15.103134826860483
10,55203290.576659258
631,0.0
668,59822069.96626002
2,1, 7,21, 0,22,30.00,40.00,SummerDesignDay
8,15.036063385178485
10,55203290.576659258
631,0.0
668,58030188.63084665
2,1, 7,21, 0,22,40.00,50.00,SummerDesignDay
8,14.968821767219835
10,55203290.576659258
631,0.0
668,56235317.80094495
2,1, 7,21, 0,22,50.00,60.00,SummerDesignDay
8,14.90141525878635
10,55203290.576659258
631,0.0
668,54433798.2000996
2,1, 7,21, 0,22, 0.00,60.00,SummerDesignDay
357,24.000000000000015
397,24.00000000000001
437,24.00000000000003
477,24.000000000000005
517,24.0
2,1, 7,21, 0,23, 0.00,10.00,SummerDesignDay
8,14.848873673278373
10,53324556.21231553
631,0.0
668,41978563.428081858
2,1, 7,21, 0,23,10.00,20.00,SummerDesignDay
8,14.796237168136719
10,53324556.21231553
631,0.0
668,39867434.94252314
2,1, 7,21, 0,23,20.00,30.00,SummerDesignDay
8,14.743494321455645
10,53324556.21231553
631,0.0
668,38426129.538841139
2,1, 7,21, 0,23,30.00,40.00,SummerDesignDay
8,14.690649975253665
10,53324556.21231553
631,0.0
668,36909882.68639788
2,1, 7,21, 0,23,40.00,50.00,SummerDesignDay
8,14.637704281233117
10,53324556.21231553
631,0.0
668,35394943.193992119
2,1, 7,21, 0,23,50.00,60.00,SummerDesignDay
8,14.584656914839757
10,53324556.21231553
631,0.0
668,33893371.72955148
2,1, 7,21, 0,23, 0.00,60.00,SummerDesignDay
357,24.0
397,24.000000000000005
437,24.000000000000019
477,24.000000000000026
517,24.000000000000015
2,1, 7,21, 0,24, 0.00,10.00,SummerDesignDay
8,14.531507212058875
10,49567087.48362807
631,0.0
668,22784930.43261366
2,1, 7,21, 0,24,10.00,20.00,SummerDesignDay
8,14.47825496413355
10,49567087.48362807
631,0.0
668,20613262.488105854
2,1, 7,21, 0,24,20.00,30.00,SummerDesignDay
8,14.4249000133173
10,49567087.48362807
631,0.0
668,19106561.95453795
2,1, 7,21, 0,24,30.00,40.00,SummerDesignDay
8,14.371447531304272
10,49567087.48362807
631,0.0
668,17516074.323218705
2,1, 7,21, 0,24,40.00,50.00,SummerDesignDay
8,14.31788619902223
10,49567087.48362807
631,0.0
668,15942325.042304473
2,1, 7,21, 0,24,50.00,60.00,SummerDesignDay
8,14.264220970176066
10,49567087.48362807
631,0.0
668,14382906.828965016
2,1, 7,21, 0,24, 0.00,60.00,SummerDesignDay
357,24.0
397,24.00000000000001
437,24.000000000000015
477,24.0
517,24.000000000000026
3,1, 7,21, 0,SummerDesignDay
358,49.02425430357272,41.632249990502888,17,60,60.31364223817369, 6,60
398,48.692998539434437,43.327471629449117,17,60,58.32471691150016, 6,60
438,49.03871024918112,41.67577862451765,17,60,60.1616254334746, 6,60
478,47.515880052196397,41.10269513963701,16,40,58.250807942349108, 6,60
518,48.842437959613388,41.675526912866029,17,60,60.010970476116, 6,60
4,1, 7
7,22.2505,16.5,21, 5,60,28.9,21,14,60
1,FORT MCMURRAY AP ANN HTG 99.6% CONDNS DB,  56.65,-111.22,  -7.00, 369.10
2,1, 1,21, 0, 1, 0.00,10.00,WinterDesignDay
8,-36.2
10,43368389.072090629
631,364981511.0216853
668,0.0
2,1, 1,21, 0, 1,10.00,20.00,WinterDesignDay
8,-36.2
10,43368389.072090629
631,365480193.16751459
668,0.0
2,1, 1,21, 0, 1,20.00,30.00,WinterDesignDay
8,-36.2
10,43368389.072090629
631,365631639.2242038
668,0.0
2,1, 1,21, 0, 1,30.00,40.00,WinterDesignDay
8,-36.2
10,43368389.072090629
631,365782986.1436166
668,0.0
2,1, 1,21, 0, 1,40.00,50.00,WinterDesignDay
8,-36.2
10,43368389.072090629
631,365907084.31763997
668,0.0
2,1, 1,21, 0, 1,50.00,60.00,WinterDesignDay
8,-36.2
10,43368389.072090629
631,365998518.78121247
668,0.0
2,1, 1,21, 0, 1, 0.00,60.00,WinterDesignDay
357,22.0
397,22.000000000000005
437,22.000000000000005
477,22.000000000000005
517,22.000000000000015
2,1, 1,21, 0, 2, 0.00,10.00,WinterDesignDay
8,-36.2
10,23328555.85121325
631,316497566.2413459
668,0.0
2,1, 1,21, 0, 2,10.00,20.00,WinterDesignDay
8,-36.2
10,23328555.85121325
631,334993473.502277
668,0.0
2,1, 1,21, 0, 2,20.00,30.00,WinterDesignDay
8,-36.2
10,23328555.85121325
631,354268302.12972787
668,0.0
2,1, 1,21, 0, 2,30.00,40.00,WinterDesignDay
8,-36.2
10,23328555.85121325
631,363757256.83594968
668,0.0
2,1, 1,21, 0, 2,40.00,50.00,WinterDesignDay
8,-36.2
10,23328555.85121325
631,369956922.4016924
668,0.0
2,1, 1,21, 0, 2,50.00,60.00,WinterDesignDay
8,-36.2
10,23328555.85121325
631,369559890.1355472
668,0.0
2,1, 1,21, 0, 2, 0.00,60.00,WinterDesignDay
357,22.000000000000005
397,18.680443044629035
437,22.0
477,18.256149445143615
517,22.000000000000005
2,1, 1,21, 0, 3, 0.00,10.00,WinterDesignDay
8,-36.2
10,6933692.2950799
631,233561148.8787009
668,0.0
2,1, 1,21, 0, 3,10.00,20.00,WinterDesignDay
8,-36.2
10,6933692.2950799
631,304520760.2282791
668,0.0
2,1, 1,21, 0, 3,20.00,30.00,WinterDesignDay
8,-36.2
10,6933692.2950799
631,338018295.415043
668,0.0
2,1, 1,21, 0, 3,30.00,40.00,WinterDesignDay
8,-36.2
10,6933692.2950799
631,341361775.9817249
668,0.0
2,1, 1,21, 0, 3,40.00,50.00,WinterDesignDay
8,-36.2
10,6933692.2950799
631,349861888.47131207
668,0.0
2,1, 1,21, 0, 3,50.00,60.00,WinterDesignDay
8,-36.2
10,6933692.2950799
631,351525650.6020961
668,0.0
2,1, 1,21, 0, 3, 0.00,60.00,WinterDesignDay
357,18.121556999751438
397,18.000000000004048
437,18.123496251713694
477,18.00000000000011
517,18.124149060541695
2,1, 1,21, 0, 4, 0.00,10.00,WinterDesignDay
8,-36.2
10,5797451.75130975
631,353545775.62071749
668,0.0
2,1, 1,21, 0, 4,10.00,20.00,WinterDesignDay
8,-36.2
10,5797451.75130975
631,354522085.19348075
668,0.0
2,1, 1,21, 0, 4,20.00,30.00,WinterDesignDay
8,-36.2
10,5797451.75130975
631,355237987.63805398
668,0.0
2,1, 1,21, 0, 4,30.00,40.00,WinterDesignDay
8,-36.2
10,5797451.75130975
631,355812265.6459893
668,0.0
2,1, 1,21, 0, 4,40.00,50.00,WinterDesignDay
8,-36.2
10,5797451.75130975
631,356246010.86582866
668,0.0
2,1, 1,21, 0, 4,50.00,60.00,WinterDesignDay
8,-36.2
10,5797451.75130975
631,356579216.2604067
668,0.0
2,1, 1,21, 0, 4, 0.00,60.00,WinterDesignDay
357,18.00000000001634
397,18.00000000000001
437,18.000000000014159
477,18.000000000000019
517,18.000000000014123
2,1, 1,21, 0, 5, 0.00,10.00,WinterDesignDay
8,-36.2
10,5797451.75130975
631,356853000.6506922
668,0.0
2,1, 1,21, 0, 5,10.00,20.00,WinterDesignDay
8,-36.2
10,5797451.75130975
631,357060400.0292536
668,0.0
2,1, 1,21, 0, 5,20.00,30.00,WinterDesignDay
8,-36.2
10,5797451.75130975
631,357232290.26890197
668,0.0
2,1, 1,21, 0, 5,30.00,40.00,WinterDesignDay
8,-36.2
10,5797451.75130975
631,357360939.47496
668,0.0
2,1, 1,21, 0, 5,40.00,50.00,WinterDesignDay
8,-36.2
10,5797451.75130975
631,357469984.14614346
668,0.0
2,1, 1,21, 0, 5,50.00,60.00,WinterDesignDay
8,-36.2
10,5797451.75130975
631,357563573.5013484
668,0.0
2,1, 1,21, 0, 5, 0.00,60.00,WinterDesignDay
357,18.00000000000001
397,18.000000000000015
437,18.000000000000005
477,18.000000000000015
517,18.0
2,1, 1,21, 0, 6, 0.00,10.00,WinterDesignDay
8,-36.2
10,5797451.75130975
631,357628285.409106
668,0.0
2,1, 1,21, 0, 6,10.00,20.00,WinterDesignDay
8,-36.2
10,5797451.75130975
631,357684148.9841076
668,0.0
2,1, 1,21, 0, 6,20.00,30.00,WinterDesignDay
8,-36.2
10,5797451.75130975
631,357735055.270735
668,0.0
2,1, 1,21, 0, 6,30.00,40.00,WinterDesignDay
8,-36.2
10,5797451.75130975
631,357779089.7614801
668,0.0
2,1, 1,21, 0, 6,40.00,50.00,WinterDesignDay
8,-36.2
10,5797451.75130975
631,357816515.59108796
668,0.0
2,1, 1,21, 0, 6,50.00,60.00,WinterDesignDay
8,-36.2
10,5797451.75130975
631,357848178.27745118
668,0.0
2,1, 1,21, 0, 6, 0.00,60.00,WinterDesignDay
357,18.000000000000005
397,18.000000000000019
437,18.0
477,18.00000000000001
517,18.0
2,1, 1,21, 0, 7, 0.00,10.00,WinterDesignDay
8,-36.2
10,8418679.936227056
631,356163588.90774819
668,0.0
2,1, 1,21, 0, 7,10.00,20.00,WinterDesignDay
8,-36.2
10,8418679.936227056
631,355934070.9058443
668,0.0
2,1, 1,21, 0, 7,20.00,30.00,WinterDesignDay
8,-36.2
10,8418679.936227056
631,355948162.15422418
668,0.0
2,1, 1,21, 0, 7,30.00,40.00,WinterDesignDay
8,-36.2
10,8418679.936227056
631,355925103.1122906
668,0.0
2,1, 1,21, 0, 7,40.00,50.00,WinterDesignDay
8,-36.2
10,8418679.936227056
631,355903441.3323377
668,0.0
2,1, 1,21, 0, 7,50.00,60.00,WinterDesignDay
8,-36.2
10,8418679.936227056
631,355885444.44845148
668,0.0
2,1, 1,21, 0, 7, 0.00,60.00,WinterDesignDay
357,18.000000000000005
397,18.000000000000015
437,18.0
477,18.000000000000019
517,18.000000000000005
2,1, 1,21, 0, 8, 0.00,10.00,WinterDesignDay
8,-36.2
10,14606128.441006873
631,406358200.3486119
668,0.0
2,1, 1,21, 0, 8,10.00,20.00,WinterDesignDay
8,-36.2
10,14606128.441006873
631,317900708.63801327
668,0.0
2,1, 1,21, 0, 8,20.00,30.00,WinterDesignDay
8,-36.2
10,14606128.441006873
631,373621984.0490726
668,0.0
2,1, 1,21, 0, 8,30.00,40.00,WinterDesignDay
8,-36.2
10,14606128.441006873
631,361807253.3282254
668,0.0
2,1, 1,21, 0, 8,40.00,50.00,WinterDesignDay
8,-36.2
10,14606128.441006873
631,360451616.5342945
668,0.0
2,1, 1,21, 0, 8,50.00,60.00,WinterDesignDay
8,-36.2
10,14606128.441006873
631,360443067.54648938
668,0.0
2,1, 1,21, 0, 8, 0.00,60.00,WinterDesignDay
357,18.0
397,20.066920177510459
437,18.0
477,20.01341411529619
517,18.0
2,1, 1,21, 0, 9, 0.00,10.00,WinterDesignDay
8,-36.2
10,15742368.98477702
631,502415952.81562188
668,0.0
2,1, 1,21, 0, 9,10.00,20.00,WinterDesignDay
8,-36.2
10,15742368.98477702
631,281590548.8950392
668,0.0
2,1, 1,21, 0, 9,20.00,30.00,WinterDesignDay
8,-36.2
10,15742368.98477702
631,422128414.5778643
668,0.0
2,1, 1,21, 0, 9,30.00,40.00,WinterDesignDay
8,-36.2
10,15742368.98477702
631,387233585.47567418
668,0.0
2,1, 1,21, 0, 9,40.00,50.00,WinterDesignDay
8,-36.2
10,15742368.98477702
631,387283588.7377255
668,0.0
2,1, 1,21, 0, 9,50.00,60.00,WinterDesignDay
8,-36.2
10,15742368.98477702
631,386678706.44891569
668,0.0
2,1, 1,21, 0, 9, 0.00,60.00,WinterDesignDay
357,20.00133129609507
397,22.036317138937318
437,20.001592374940125
477,22.009584479106495
517,20.001609787496475
2,1, 1,21, 0,10, 0.00,10.00,WinterDesignDay
8,-36.2
10,26163532.257259817
631,458728246.58744356
668,0.0
2,1, 1,21, 0,10,10.00,20.00,WinterDesignDay
8,-36.2
10,26163532.257259817
631,332657020.4499128
668,0.0
2,1, 1,21, 0,10,20.00,30.00,WinterDesignDay
8,-36.2
10,26163532.257259817
631,413706206.1895698
668,0.0
2,1, 1,21, 0,10,30.00,40.00,WinterDesignDay
8,-36.2
10,26163532.257259817
631,394031199.1674737
668,0.0
2,1, 1,21, 0,10,40.00,50.00,WinterDesignDay
8,-36.2
10,26163532.257259817
631,393281600.3839071
668,0.0
2,1, 1,21, 0,10,50.00,60.00,WinterDesignDay
8,-36.2
10,26163532.257259817
631,392645358.60093107
668,0.0
2,1, 1,21, 0,10, 0.00,60.00,WinterDesignDay
357,22.001024039862583
397,22.0
437,22.00133406093133
477,22.0
517,22.001394428579663
2,1, 1,21, 0,11, 0.00,10.00,WinterDesignDay
8,-36.2
10,34360964.035326499
631,385630808.77706816
668,0.0
2,1, 1,21, 0,11,10.00,20.00,WinterDesignDay
8,-36.2
10,34360964.035326499
631,383907052.3220459
668,0.0
2,1, 1,21, 0,11,20.00,30.00,WinterDesignDay
8,-36.2
10,34360964.035326499
631,383461676.64853247
668,0.0
2,1, 1,21, 0,11,30.00,40.00,WinterDesignDay
8,-36.2
10,34360964.035326499
631,382907399.83512106