Program Version,EnergyPlus, Version 8.9.0-eba93e8e1b, YMD=2019.03.27 19:58
1,5,Environment Title[],Latitude[deg],Longitude[deg],Time Zone[],Elevation[m]
2,8,Day of Simulation[],Month[],Day of Month[],DST Indicator[1=yes 0=no],Hour[],StartMinute[],EndMinute[],DayType
3,5,Cumulative Day of Simulation[],Month[],Day of Month[],DST Indicator[1=yes 0=no],DayType  ! When Daily Report Variables Requested
4,2,Cumulative Days of Simulation[],Month[]  ! When Monthly Report Variables Requested
5,1,Cumulative Days of Simulation[] ! When Run Period Report Variables Requested
6,1,Calendar Year of Simulation[] ! When Annual Report Variables Requested
7,9,Environment,Site Outdoor Air Drybulb Temperature [C] !Monthly [Value,Min,Day,Hour,Minute,Max,Day,Hour,Minute]
8,1,Environment,Site Outdoor Air Wetbulb Temperature [C] !TimeStep
888,1,ATRIUM - H < 13M-SPACE FUNCTION ZN,Zone Air Temperature [C] !Hourly
889,7,ATRIUM - H < 13M-SPACE FUNCTION ZN,Zone Air Relative Humidity [%] !Daily [Value,Min,Hour,Minute,Max,Hour,Minute]
928,1,ATRIUM - H > 13M-SPACE FUNCTION ZN,Zone Air Temperature [C] !Hourly
929,7,ATRIUM - H > 13M-SPACE FUNCTION ZN,Zone Air Relative Humidity [%] !Daily [Value,Min,Hour,Minute,Max,Hour,Minute]
968,1,AUDIENCE - AUDITORIUM-SPACE FUNCTION ZN,Zone Air Temperature [C] !Hourly
969,7,AUDIENCE - AUDITORIUM-SPACE FUNCTION ZN,Zone Air Relative Humidity [%] !Daily [Value,Min,Hour,Minute,Max,Hour,Minute]
1008,1,AUDIENCE - MOTION PICTURE-SPACE FUNCTION ZN,Zone Air Temperature [C] !Hourly
1009,7,AUDIENCE - MOTION PICTURE-SPACE FUNCTION ZN,Zone Air Relative Humidity [%] !Daily [Value,Min,Hour,Minute,Max,Hour,Minute]
1048,1,AUDIENCE - PERFORMANCE ARTS-SPACE FUNCTION ZN,Zone Air Temperature [C] !Hourly
1049,7,AUDIENCE - PERFORMANCE ARTS-SPACE FUNCTION ZN,Zone Air Relative Humidity [%] !Daily [Value,Min,Hour,Minute,Max,Hour,Minute]
1088,1,AUTOMOTIVE - REPAIR-SPACE FUNCTION ZN,Zone Air Temperature [C] !Hourly
1089,7,AUTOMOTIVE - REPAIR-SPACE FUNCTION ZN,Zone Air Relative Humidity [%] !Daily [Value,Min,Hour,Minute,Max,Hour,Minute]
1128,1,BANK - BANKING AND OFFICES-SPACE FUNCTION ZN,Zone Air Temperature [C] !Hourly
1129,7,BANK - BANKING AND OFFICES-SPACE FUNCTION ZN,Zone Air Relative Humidity [%] !Daily [Value,Min,Hour,Minute,Max,Hour,Minute]
1168,1,CLASSROOM/LECTURE/TRAINING-SPACE FUNCTION ZN,Zone Air Temperature [C] !Hourly
1169,7,CLASSROOM/LECTURE/TRAINING-SPACE FUNCTION ZN,Zone Air Relative Humidity [%] !Daily [Value,Min,Hour,Minute,Max,Hour,Minute]
1208,1,CONF./MEET./MULTI-PURPOSE-SPACE FUNCTION ZN,Zone Air Temperature [C] !Hourly
1209,7,CONF./MEET./MULTI-PURPOSE-SPACE FUNCTION ZN,Zone Air Relative Humidity [%] !Daily [Value,Min,Hour,Minute,Max,Hour,Minute]
1248,1,CONVENTION CENTRE - AUDIENCE-SPACE FUNCTION ZN,Zone Air Temperature [C] !Hourly
1249,7,CONVENTION CENTRE - AUDIENCE-SPACE FUNCTION ZN,Zone Air Relative Humidity [%] !Daily [Value,Min,Hour,Minute,Max,Hour,Minute]
1288,1,CONVENTION CENTRE - EXHIBIT-SPACE FUNCTION ZN,Zone Air Temperature [C] !Hourly
1289,7,CONVENTION CENTRE - EXHIBIT-SPACE FUNCTION ZN,Zone Air Relative Humidity [%] !Daily [Value,Min,Hour,Minute,Max,Hour,Minute]
1328,1,COURTHOUSE - CELL-SPACE FUNCTION ZN,Zone Air Temperature [C] !Hourly
1329,7,COURTHOUSE - CELL-SPACE FUNCTION ZN,Zone Air Relative Humidity [%] !Daily [Value,Min,Hour,Minute,Max,Hour,Minute]
1368,1,WHOLEBUILDING-PARKING GARAGE ZN,Zone Air Temperature [C] !Hourly
1369,7,WHOLEBUILDING-PARKING GARAGE ZN,Zone Air Relative Humidity [%] !Daily [Value,Min,Hour,Minute,Max,Hour,Minute]
1408,1,WHOLEBUILDING-PENITENTIARY ZN,Zone Air Temperature [C] !Hourly
1409,7,WHOLEBUILDING-PENITENTIARY ZN,Zone Air Relative Humidity [%] !Daily [Value,Min,Hour,Minute,Max,Hour,Minute]
1448,1,WHOLEBUILDING-PERFORMING ARTS THEATRE ZN,Zone Air Temperature [C] !Hourly
1449,7,WHOLEBUILDING-PERFORMING ARTS THEATRE ZN,Zone Air Relative Humidity [%] !Daily [Value,Min,Hour,Minute,Max,Hour,Minute]
1488,1,WHOLEBUILDING-POLICE STATION ZN,Zone Air Temperature [C] !Hourly
1489,7,WHOLEBUILDING-POLICE STATION ZN,Zone Air Relative Humidity [%] !Daily [Value,Min,Hour,Minute,Max,Hour,Minute]
1528,1,WHOLEBUILDING-POST OFFICE ZN,Zone Air Temperature [C] !Hourly
1529,7,WHOLEBUILDING-POST OFFICE ZN,Zone Air Relative Humidity [%] !Daily [Value,Min,Hour,Minute,Max,Hour,Minute]
1568,1,WHOLEBUILDING-RELIGIOUS ZN,Zone Air Temperature [C] !Hourly
1569,7,WHOLEBUILDING-RELIGIOUS ZN,Zone Air Relative Humidity [%] !Daily [Value,Min,Hour,Minute,Max,Hour,Minute]
1608,1,WHOLEBUILDING-RETAIL ZN,Zone Air Temperature [C] !Hourly
1609,7,WHOLEBUILDING-RETAIL ZN,Zone Air Relative Humidity [%] !Daily [Value,Min,Hour,Minute,Max,Hour,Minute]
1648,1,WHOLEBUILDING-SCHOOL/UNIVERSITY ZN,Zone Air Temperature [C] !Hourly
1649,7,WHOLEBUILDING-SCHOOL/UNIVERSITY ZN,Zone Air Relative Humidity [%] !Daily [Value,Min,Hour,Minute,Max,Hour,Minute]
10,1,Electricity:Facility [J] !TimeStep
1799,1,DistrictCooling:Facility [J] !TimeStep
1762,1,DistrictHeating:Facility [J] !TimeStep
End of Data Dictionary
1,FORT MCMURRAY AP ANN CLG .4% CONDNS DB=>MWB,  56.65,-111.22,  -7.00, 369.10
2,1, 7,21, 0, 1, 0.00,10.00,SummerDesignDay
8,14.218136923962174
10,79910334.92979603
1762,0.0
1799,52884945.688702929
2,1, 7,21, 0, 1,10.00,20.00,SummerDesignDay
8,14.171982153293495
10,79910334.92979603
1762,0.0
1799,51819678.57096765
2,1, 7,21, 0, 1,20.00,30.00,SummerDesignDay
8,14.125744780286427
10,79910334.92979603
1762,0.0
1799,50756902.27521049
2,1, 7,21, 0, 1,30.00,40.00,SummerDesignDay
8,14.079436086331978
10,79910334.92979603
1762,0.0
1799,49696704.34032914
2,1, 7,21, 0, 1,40.00,50.00,SummerDesignDay
8,14.033050387896898
10,79910334.92979603
1762,0.0
1799,48639479.85202504
2,1, 7,21, 0, 1,50.00,60.00,SummerDesignDay
8,13.986581233564835
10,79910334.92979603
1762,0.0
1799,47586104.28641924
2,1, 7,21, 0, 1, 0.00,60.00,SummerDesignDay
888,25.118437639321628
928,24.143464005386439
968,21.836561740054266
1008,20.98216671883387
1048,21.227165900962395
1088,22.88280855332314
1128,24.138237739213765
1168,21.63612267159805
1208,23.361304158430113
1248,21.00449840768118
1288,24.01828577828449
1328,24.000000000000044
1368,24.0
1408,24.00000000000001
1448,23.44938913158516
1488,24.000000000000005
1528,23.36950460410343
1568,25.09596934814876
1608,25.296650537851624
1648,24.94782800449949
2,1, 7,21, 0, 2, 0.00,10.00,SummerDesignDay
8,13.95555882260429
10,74189757.53971546
1762,0.0
1799,46760790.6560522
2,1, 7,21, 0, 2,10.00,20.00,SummerDesignDay
8,13.924507755336454
10,74189757.53971546
1762,0.0
1799,45933466.0908626
2,1, 7,21, 0, 2,20.00,30.00,SummerDesignDay
8,13.893416042989206
10,74189757.53971546
1762,0.0
1799,45098706.530099768
2,1, 7,21, 0, 2,30.00,40.00,SummerDesignDay
8,13.862289589689029
10,74189757.53971546
1762,0.0
1799,44258846.89245194
2,1, 7,21, 0, 2,40.00,50.00,SummerDesignDay
8,13.831134407608739
10,74189757.53971546
1762,0.0
1799,43416188.41698749
2,1, 7,21, 0, 2,50.00,60.00,SummerDesignDay
8,13.799938415548118
10,74189757.53971546
1762,0.0
1799,42703087.20697083
2,1, 7,21, 0, 2, 0.00,60.00,SummerDesignDay
888,24.937473197076078
928,23.78652822848768
968,21.386829306024479
1008,20.52867011371738
1048,20.768359642678179
1088,22.594592102540515
1128,23.90079590473266
1168,21.22104955914856
1208,23.015994603191655
1248,20.548869543421096
1288,23.750637672307577
1328,24.000000000000044
1368,23.99938963810476
1408,24.000000000000005
1448,23.088611301478733
1488,24.000000000000026
1528,22.92652186413837
1568,24.78158889572713
1608,25.060870495234189
1648,24.66269822184131
2,1, 7,21, 0, 3, 0.00,10.00,SummerDesignDay
8,13.776521671948676
10,74189757.53971546
1762,0.0
1799,42146534.525872979
2,1, 7,21, 0, 3,10.00,20.00,SummerDesignDay
8,13.753085235778466
10,74189757.53971546
1762,0.0
1799,41589880.50265634
2,1, 7,21, 0, 3,20.00,30.00,SummerDesignDay
8,13.729636002354969
10,74189757.53971546
1762,0.0
1799,41033160.20927483
2,1, 7,21, 0, 3,30.00,40.00,SummerDesignDay
8,13.706147375533054
10,74189757.53971546
1762,0.0
1799,40476450.76545408
2,1, 7,21, 0, 3,40.00,50.00,SummerDesignDay
8,13.682651961920304
10,74189757.53971546
1762,0.0
1799,39919789.312195
2,1, 7,21, 0, 3,50.00,60.00,SummerDesignDay
8,13.659136670643687
10,74189757.53971546
1762,0.0
1799,39363121.134519819
2,1, 7,21, 0, 3, 0.00,60.00,SummerDesignDay
888,24.773862209840066
928,23.486635446903859
968,21.039311900764657
1008,20.189243066159027
1048,20.424683167789014
1088,22.37476026530061
1128,23.71047342083668
1168,20.909400687502033
1208,22.735969586389616
1248,20.20611145868466
1288,23.527111831952923
1328,24.000000000000019
1368,23.938751643023669
1408,24.000000000000015
1448,22.79896914646463
1488,23.99999999999999
1528,22.566665636795177
1568,24.415947243330863
1608,24.84952477591568
1648,24.405780979544916
2,1, 7,21, 0, 4, 0.00,10.00,SummerDesignDay
8,13.63560137410855
10,74189757.53971546
1762,0.0
1799,38806393.42060995
2,1, 7,21, 0, 4,10.00,20.00,SummerDesignDay
8,13.612040802606578
10,74189757.53971546
1762,0.0
1799,38249501.73577006
2,1, 7,21, 0, 4,20.00,30.00,SummerDesignDay
8,13.58846620506876
10,74189757.53971546
1762,0.0
1799,37692621.89745168
2,1, 7,21, 0, 4,30.00,40.00,SummerDesignDay
8,13.56487178447336
10,74189757.53971546
1762,0.0
1799,37135493.34792501
2,1, 7,21, 0, 4,40.00,50.00,SummerDesignDay
8,13.541257354069103
10,74189757.53971546
1762,0.0
1799,36578141.317398939
2,1, 7,21, 0, 4,50.00,60.00,SummerDesignDay
8,13.517617463812285
10,74189757.53971546
1762,0.0
1799,36020543.5463823
2,1, 7,21, 0, 4, 0.00,60.00,SummerDesignDay
888,24.609684623974716
928,23.213674854084649
968,20.72837535096486
1008,19.889535134872049
1048,20.12188011502019
1088,22.18061424140959
1128,23.53535884369174
1168,20.634613170556745
1208,22.47682071301423
1248,19.90229112800886
1288,23.316679817053929
1328,24.00000000000001
1368,23.79194872199172
1408,24.00000000000003
1448,22.541957865494174
1488,24.00000000000001
1528,22.243941305600143
1568,24.207956056381577
1608,24.647096274983157
1648,24.16086263111168
2,1, 7,21, 0, 5, 0.00,10.00,SummerDesignDay
8,13.50185415824011
10,74189757.53971546
1762,0.0
1799,35548788.81570438
2,1, 7,21, 0, 5,10.00,20.00,SummerDesignDay
8,13.486076034032447
10,74189757.53971546
1762,0.0
1799,36235304.009742449
2,1, 7,21, 0, 5,20.00,30.00,SummerDesignDay
8,13.470289340350983
10,74189757.53971546
1762,0.0
1799,36921444.18939514
2,1, 7,21, 0, 5,30.00,40.00,SummerDesignDay
8,13.454493322631063
10,74189757.53971546
1762,0.0
1799,37771260.0381189
2,1, 7,21, 0, 5,40.00,50.00,SummerDesignDay
8,13.438688835118548
10,74189757.53971546
1762,0.0
1799,38775520.13185902
2,1, 7,21, 0, 5,50.00,60.00,SummerDesignDay
8,13.422888173889437
10,74189757.53971546
1762,0.0
1799,39770820.6816497
2,1, 7,21, 0, 5, 0.00,60.00,SummerDesignDay
888,24.55547454974989
928,23.026457068585246
968,20.454538630355175
1008,19.622148261610169
1048,19.85258699045464
1088,22.002246886456278
1128,23.369890143842566
1168,20.386868247582524
1208,22.238622902494716
1248,19.63003732263866
1288,23.178449618505643
1328,24.000000000000019
1368,23.693114478271114
1408,24.000000000000026
1448,22.501298557268929
1488,24.000000000000026
1528,22.01170883626746
1568,24.130819163384986
1608,24.51915776464763
1648,23.931446105264557
2,1, 7,21, 0, 6, 0.00,10.00,SummerDesignDay
8,13.438688835118548
10,74189757.53971546
1762,0.0
1799,41028302.14196279
2,1, 7,21, 0, 6,10.00,20.00,SummerDesignDay
8,13.454493322631063
10,74189757.53971546
1762,0.0
1799,42278581.81370659
2,1, 7,21, 0, 6,20.00,30.00,SummerDesignDay
8,13.470289340350983
10,74189757.53971546
1762,0.0
1799,43517679.4931021
2,1, 7,21, 0, 6,30.00,40.00,SummerDesignDay
8,13.486076034032447
10,74189757.53971546
1762,0.0
1799,44724473.25395773
2,1, 7,21, 0, 6,40.00,50.00,SummerDesignDay
8,13.50185415824011
10,74189757.53971546
1762,0.0
1799,45886277.1163118
2,1, 7,21, 0, 6,50.00,60.00,SummerDesignDay
8,13.517617463812285
10,74189757.53971546
1762,0.0
1799,47011921.43193359
2,1, 7,21, 0, 6, 0.00,60.00,SummerDesignDay
888,24.938251364945999
928,23.141776761158579
968,20.350329135410818
1008,19.518696943221003
1048,19.751914321173819
1088,21.90143300285848
1128,23.267181815238229
1168,20.270041692478629
1208,22.101414076925253
1248,19.517260066526899
1288,23.155041530062019
1328,24.000000000000019
1368,23.855104142897816
1408,23.99999999999999
1448,22.909996513629137
1488,24.00000000000001
1528,22.089340688130048
1568,24.499210834494006
1608,24.508059793857116
1648,23.777018980439725
2,1, 7,21, 0, 7, 0.00,10.00,SummerDesignDay
8,13.572736920571789
10,74189757.53971546
1762,0.0
1799,51043805.24197705
2,1, 7,21, 0, 7,10.00,20.00,SummerDesignDay
8,13.627748229152554
10,74189757.53971546
1762,0.0
1799,52468873.91732189
2,1, 7,21, 0, 7,20.00,30.00,SummerDesignDay
8,13.682651961920304
10,74189757.53971546
1762,0.0
1799,55091354.284361619
2,1, 7,21, 0, 7,30.00,40.00,SummerDesignDay
8,13.737448093244995
10,74189757.53971546
1762,0.0
1799,57618414.63486619
2,1, 7,21, 0, 7,40.00,50.00,SummerDesignDay
8,13.792137011831216
10,74189757.53971546
1762,0.0
1799,60227000.15449189
2,1, 7,21, 0, 7,50.00,60.00,SummerDesignDay
8,13.846719282840333
10,74189757.53971546
1762,0.0
1799,62817698.38348925
2,1, 7,21, 0, 7, 0.00,60.00,SummerDesignDay
888,25.441122511194796
928,23.580345097656108
968,20.550864334989368
1008,19.72880383352767
1048,19.978718497635616
1088,21.964252548614668
1128,23.28815669529499
1168,20.414336465467348
1208,22.14198656753439
1248,19.714911572550773
1288,23.108687313572714
1328,24.000000000000026
1368,23.99997963126212
1408,24.000000000000019
1448,23.276516139296594
1488,24.000000000000033
1528,22.52482779337969
1568,25.035971120089305
1608,24.433384431106206
1648,23.749795029118407
2,1, 7,21, 0, 8, 0.00,10.00,SummerDesignDay
8,13.978831900527043
10,84014675.77261183
1762,2842877.6982035099
1799,106958058.2571558
2,1, 7,21, 0, 8,10.00,20.00,SummerDesignDay
8,14.110321014287419
10,84014675.77261183
1762,0.0
1799,82910930.151063
2,1, 7,21, 0, 8,20.00,30.00,SummerDesignDay
8,14.241191509616986
10,84014675.77261183
1762,0.0
1799,98049056.52531427
2,1, 7,21, 0, 8,30.00,40.00,SummerDesignDay
8,14.371447531304272
10,84014675.77261183
1762,0.0
1799,107545038.61671153
2,1, 7,21, 0, 8,40.00,50.00,SummerDesignDay
8,14.501093766564925
10,84014675.77261183
1762,0.0
1799,120853792.50481218
2,1, 7,21, 0, 8,50.00,60.00,SummerDesignDay
8,14.630134792273804
10,84014675.77261183
1762,0.0
1799,131515615.45150407
2,1, 7,21, 0, 8, 0.00,60.00,SummerDesignDay
888,23.935113927956836
928,23.992740630558989
968,21.24743054058657
1008,20.47150033725367
1048,20.722823009222148
1088,22.288632571518844
1128,23.779290536269547
1168,20.983724277225809
1208,22.472426074076798
1248,20.454644424046394
1288,23.291048842418705
1328,24.0
1368,24.0
1408,24.00000000000001
1448,23.884643722461094
1488,24.00000000000001
1528,23.654353679071048
1568,25.62696121140053
1608,23.975756633918946
1648,23.908395188655605
2,1, 7,21, 0, 9, 0.00,10.00,SummerDesignDay
8,14.773641492809972
10,192564272.36626218
1762,54456508.96207169
1799,177854024.89451549
2,1, 7,21, 0, 9,10.00,20.00,SummerDesignDay
8,14.91640948124148
10,192564272.36626218
1762,2032561.8164471337
1799,192390998.82723297
2,1, 7,21, 0, 9,20.00,30.00,SummerDesignDay
8,15.05843890714102
10,192564272.36626218
1762,3187591.214421695
1799,206653999.70577694
2,1, 7,21, 0, 9,30.00,40.00,SummerDesignDay
8,15.199735893563798
10,192564272.36626218
1762,0.0
1799,218107153.80656306
2,1, 7,21, 0, 9,40.00,50.00,SummerDesignDay
8,15.340306256439395
10,192564272.36626218
1762,0.0
1799,228576501.48406015
2,1, 7,21, 0, 9,50.00,60.00,SummerDesignDay
8,15.48015101768072
10,192564272.36626218
1762,0.0
1799,241732568.5538821
2,1, 7,21, 0, 9, 0.00,60.00,SummerDesignDay
888,23.99999999999964
928,24.00000000000001
968,22.758396991665327
1008,22.358702608397424
1048,22.735994579019889
1088,23.250886936940338
1128,23.999999646240466
1168,22.467508252835704
1208,23.50479809507178
1248,22.30967985634499
1288,23.940501872117719
1328,24.00000000000001
1368,24.00000000000001
1408,24.000000000000026
1448,23.99999999994832
1488,24.00000000000001
1528,23.999999993510586
1568,26.26139463277157
1608,24.0
1648,23.999999894043584
2,1, 7,21, 0,10, 0.00,10.00,SummerDesignDay
8,15.60467292907716
10,288358725.1150635
1762,0.0
1799,300780123.2222184
2,1, 7,21, 0,10,10.00,20.00,SummerDesignDay
8,15.72862731650033
10,288358725.1150635
1762,0.0
1799,337434854.8547177
2,1, 7,21, 0,10,20.00,30.00,SummerDesignDay
8,15.852017409284228
10,288358725.1150635
1762,0.0
1799,369600482.4248797
2,1, 7,21, 0,10,30.00,40.00,SummerDesignDay
8,15.974848118364367
10,288358725.1150635
1762,0.0
1799,408531326.49441888
2,1, 7,21, 0,10,40.00,50.00,SummerDesignDay
8,16.097123145563505
10,288358725.1150635
1762,0.0
1799,427777727.0406956
2,1, 7,21, 0,10,50.00,60.00,SummerDesignDay
8,16.218846351168599
10,288358725.1150635
1762,0.0
1799,454230763.43893888
2,1, 7,21, 0,10, 0.00,60.00,SummerDesignDay
888,24.00000000000001
928,24.000000000000019
968,23.94586686328309
1008,23.774480098333226
1048,23.969489240036724
1088,23.993446197229166
1128,24.000000000000005
1168,23.925500376248278
1208,23.99999085738243
1248,23.695742769393804
1288,23.99999999999766
1328,24.0
1368,24.000000000000033
1408,24.00000000000003
1448,24.00000000000003
1488,24.000000000000015
1528,24.000000000000026
1568,26.884686415253936
1608,23.99999999999999
1648,24.000000000000044
2,1, 7,21, 0,11, 0.00,10.00,SummerDesignDay
8,16.325793027093189
10,291103702.2694709
1762,0.0
1799,514267141.7951373
2,1, 7,21, 0,11,10.00,20.00,SummerDesignDay
8,16.432322158488288
10,291103702.2694709
1762,0.0
1799,538015258.4372131
2,1, 7,21, 0,11,20.00,30.00,SummerDesignDay
8,16.538424180249178
10,291103702.2694709
1762,0.0
1799,561066026.1961291
2,1, 7,21, 0,11,30.00,40.00,SummerDesignDay
8,16.644108396469087
10,291103702.2694709
1762,0.0
1799,583763852.8995625
2,1, 7,21, 0,11,40.00,50.00,SummerDesignDay
8,16.749376736593655
10,291103702.2694709
1762,0.0
1799,606076768.2540815
2,1, 7,21, 0,11,50.00,60.00,SummerDesignDay
8,16.854232613237156
10,291103702.2694709
1762,0.0
1799,627719119.5787215
2,1, 7,21, 0,11, 0.00,60.00,SummerDesignDay
888,24.000000000000019
928,24.000000000000047
968,23.99999924193882
1008,23.99998991277866
1048,23.999999846784154
1088,23.999999999977008
1128,24.00000000000001
1168,23.99999984384137
1208,23.99999999999991
1248,23.999929964447053
1288,24.000000000000033
1328,24.000000000000044
1368,23.99999999999999
1408,24.000000000000055
1448,24.0
1488,24.00000000000004
1528,24.00000000000011
1568,27.261455611638366
1608,23.99999999999999
1648,24.000000000000033
2,1, 7,21, 0,12, 0.00,10.00,SummerDesignDay
8,16.92390823520069
10,291103702.2694709
1762,0.0
1799,643177600.0012432
2,1, 7,21, 0,12,10.00,20.00,SummerDesignDay
8,16.99340178950456
10,291103702.2694709
1762,0.0
1799,658001815.6956483
2,1, 7,21, 0,12,20.00,30.00,SummerDesignDay
8,17.06272006743463
10,291103702.2694709
1762,0.0
1799,672053073.9242846
2,1, 7,21, 0,12,30.00,40.00,SummerDesignDay
8,17.131853229172639
10,291103702.2694709
1762,0.0
1799,685799188.58718
2,1, 7,21, 0,12,40.00,50.00,SummerDesignDay
8,17.200807172194087
10,291103702.2694709
1762,0.0
1799,699419677.6733197
2,1, 7,21, 0,12,50.00,60.00,SummerDesignDay
8,17.269582116758607
10,291103702.2694709
1762,0.0
1799,712873610.5576836
2,1, 7,21, 0,12, 0.00,60.00,SummerDesignDay
888,24.000000000000015
928,24.000000000000015
968,23.99999999991199
1008,23.999999998261804
1048,23.9999999999801
1088,24.000000000000015
1128,24.000000000000019
1168,23.99999999999605
1208,24.00000000000004
1248,23.999999986648363
1288,24.0
1328,24.000000000000033
1368,24.00000000000003
1408,24.0
1448,24.00000000000001
1488,24.0
1528,23.999999999999987
1568,27.45173952832698
1608,24.00000000000003
1648,24.000000000000026
2,1, 7,21, 0,13, 0.00,10.00,SummerDesignDay
8,17.32447360221357
10,291103702.2694709
1762,0.0
1799,740399002.9580088
2,1, 7,21, 0,13,10.00,20.00,SummerDesignDay
8,17.379251291230806
10,291103702.2694709
1762,0.0
1799,751647243.5937413
2,1, 7,21, 0,13,20.00,30.00,SummerDesignDay
8,17.433921312061729
10,291103702.2694709
1762,0.0
1799,762175314.4351864
2,1, 7,21, 0,13,30.00,40.00,SummerDesignDay
8,17.488473222557489
10,291103702.2694709
1762,0.0
1799,772405452.2197132
2,1, 7,21, 0,13,40.00,50.00,SummerDesignDay
8,17.542913447755134
10,291103702.2694709
1762,0.0
1799,782293845.704783
2,1, 7,21, 0,13,50.00,60.00,SummerDesignDay
8,17.59724609886134
10,291103702.2694709
1762,0.0
1799,791774521.4430193
2,1, 7,21, 0,13, 0.00,60.00,SummerDesignDay
888,24.0
928,24.00000000000004
968,24.000000000000005
1008,23.999999999999735
1048,24.000000000000015
1088,23.999999999999998
1128,24.00000000000003
1168,24.00000000000001
1208,24.000000000000069
1248,23.999999999997656
1288,24.00000000000004
1328,24.0
1368,24.000000000000033
1408,24.000000000000044
1448,23.999999999999998
1488,23.999999999999987
1528,24.000000000000026
1568,27.798340444350214
1608,24.00000000000001
1648,24.0
2,1, 7,21, 0,14, 0.00,10.00,SummerDesignDay
8,17.6311450462694
10,291103702.2694709
1762,0.0
1799,798227126.562121
2,1, 7,21, 0,14,10.00,20.00,SummerDesignDay
8,17.665000449016245
10,291103702.2694709
1762,0.0
1799,804469840.7483151
2,1, 7,21, 0,14,20.00,30.00,SummerDesignDay
8,17.698812743128934
10,291103702.2694709
1762,0.0
1799,810624671.7309667
2,1, 7,21, 0,14,30.00,40.00,SummerDesignDay
8,17.732582050940107
10,291103702.2694709
1762,0.0
1799,816750564.5568152
2,1, 7,21, 0,14,40.00,50.00,SummerDesignDay
8,17.766307345121004
10,291103702.2694709
1762,0.0
1799,822866192.4876144
2,1, 7,21, 0,14,50.00,60.00,SummerDesignDay
8,17.79999023167558
10,291103702.2694709
1762,0.0
1799,828974294.1094372
2,1, 7,21, 0,14, 0.00,60.00,SummerDesignDay
888,24.000000000000019
928,23.999999999999969
968,24.00000000000004
1008,23.999999999999998
1048,24.000000000000015
1088,24.00000000000004
1128,24.00000000000001
1168,23.99999999999999
1208,24.000000000000019
1248,24.000000000000033
1288,24.000000000000026
1328,24.00000000000004
1368,24.000000000000058
1408,24.0
1448,24.000000000000047
1488,24.00000000000004
1528,24.0
1568,28.17633359058425
1608,24.000000000000015
1648,24.00000000000004
2,1, 7,21, 0,15, 0.00,10.00,SummerDesignDay
8,17.79999023167558
10,291103702.2694709
1762,0.0
1799,907125843.3836939
2,1, 7,21, 0,15,10.00,20.00,SummerDesignDay
8,17.79999023167558
10,291103702.2694709
1762,0.0
1799,858625470.2967558
2,1, 7,21, 0,15,20.00,30.00,SummerDesignDay
8,17.79999023167558
10,291103702.2694709
1762,0.0
1799,885704113.4231633
2,1, 7,21, 0,15,30.00,40.00,SummerDesignDay
8,17.79999023167558
10,291103702.2694709
1762,0.0
1799,858749143.3006489
2,1, 7,21, 0,15,40.00,50.00,SummerDesignDay
8,17.79999023167558
10,291103702.2694709
1762,0.0
1799,861965626.7066336
2,1, 7,21, 0,15,50.00,60.00,SummerDesignDay
8,17.79999023167558
10,291103702.2694709
1762,0.0
1799,862491266.7603811
2,1, 7,21, 0,15, 0.00,60.00,SummerDesignDay
888,24.0
928,24.000000000000005
968,24.000000000000033
1008,24.00000000000001
1048,24.00000000000001
1088,24.000000000000015
1128,23.99999999999999
1168,24.00000000000001
1208,23.99999999999999
1248,23.99999999999999
1288,24.00000000000003
1328,23.99999999999999
1368,24.00000000000001
1408,24.00000000000003
1448,24.0
1488,24.000000000000015
1528,24.00000000000006
1568,23.855346895963213
1608,23.99999999999999
1648,24.000000000000005
2,1, 7,21, 0,16, 0.00,10.00,SummerDesignDay
8,17.759562446305357
10,296936778.7234949
1762,0.0
1799,861992486.8283025
2,1, 7,21, 0,16,10.00,20.00,SummerDesignDay
8,17.71907809634183
10,296936778.7234949
1762,0.0
1799,856659836.2563189
2,1, 7,21, 0,16,20.00,30.00,SummerDesignDay
8,17.67853788661001
10,296936778.7234949
1762,0.0
1799,850685969.210156
2,1, 7,21, 0,16,30.00,40.00,SummerDesignDay
8,17.63791796367351
10,296936778.7234949
1762,0.0
1799,844297695.4120302
2,1, 7,21, 0,16,40.00,50.00,SummerDesignDay
8,17.59724609886134
10,296936778.7234949
1762,0.0
1799,837572801.584158
2,1, 7,21, 0,16,50.00,60.00,SummerDesignDay
8,17.55650676726033
10,296936778.7234949
1762,0.0
1799,830545739.3386443
2,1, 7,21, 0,16, 0.00,60.00,SummerDesignDay
888,24.00000000000003
928,24.000000000000019
968,24.000000000000015
1008,24.000000000000033
1048,23.99999999999997
1088,24.0
1128,24.000000000000019
1168,24.000000000000015
1208,24.0
1248,23.999999999999959
1288,24.000000000000015
1328,24.0
1368,24.0
1408,24.00000000000004
1448,24.0
1488,24.000000000000033
1528,24.0
1568,23.999999999999905
1608,24.000000000000026
1648,24.000000000000026
2,1, 7,21, 0,17, 0.00,10.00,SummerDesignDay
8,17.50209486331892
10,288313350.4917062
1762,0.0
1799,821302185.73934
2,1, 7,21, 0,17,10.00,20.00,SummerDesignDay
8,17.447570789624618
10,288313350.4917062
1762,0.0
1799,811948289.3766171
2,1, 7,21, 0,17,20.00,30.00,SummerDesignDay
8,17.392929544208135
10,288313350.4917062
1762,0.0
1799,802560339.1853863
2,1, 7,21, 0,17,30.00,40.00,SummerDesignDay
8,17.33818013976614
10,288313350.4917062
1762,0.0
1799,792961107.5419703
2,1, 7,21, 0,17,40.00,50.00,SummerDesignDay
8,17.283317298559309
10,288313350.4917062
1762,0.0
1799,783132648.7159457
2,1, 7,21, 0,17,50.00,60.00,SummerDesignDay
8,17.22833552437677
10,288313350.4917062
1762,0.0
1799,773086421.5043265
2,1, 7,21, 0,17, 0.00,60.00,SummerDesignDay
888,23.999999999999984
928,24.000000000000044
968,23.999999999999959
1008,23.99999999999999
1048,24.0
1088,24.00000000000001
1128,24.000000000000033
1168,24.000000000000026
1208,24.000000000000033
1248,24.000000000000026
1288,24.000000000000015
1328,24.000000000000026
1368,24.000000000000019
1408,24.00000000000004
1448,24.000000000000026
1488,24.00000000000004
1528,23.999999999999976
1568,24.0
1608,24.000000000000058
1648,24.0
2,1, 7,21, 0,18, 0.00,10.00,SummerDesignDay
8,17.159453019160176
10,276397449.66106608
1762,0.0
1799,736338899.984108
2,1, 7,21, 0,18,10.00,20.00,SummerDesignDay
8,17.090391773337136
10,276397449.66106608
1762,0.0
1799,721595771.2318444
2,1, 7,21, 0,18,20.00,30.00,SummerDesignDay
8,17.021151077964786
10,276397449.66106608
1762,0.0
1799,706743003.2610616
2,1, 7,21, 0,18,30.00,40.00,SummerDesignDay
8,16.951729380464653
10,276397449.66106608
1762,0.0
1799,692080965.3930589
2,1, 7,21, 0,18,40.00,50.00,SummerDesignDay
8,16.882126503829249
10,276397449.66106608
1762,0.0
1799,677640241.0768191
2,1, 7,21, 0,18,50.00,60.00,SummerDesignDay
8,16.812341807494034
10,276397449.66106608
1762,0.0
1799,663324019.5428913
2,1, 7,21, 0,18, 0.00,60.00,SummerDesignDay
888,24.00000000000003
928,24.0
968,23.999999999999948
1008,24.000000000000005
1048,23.999999999999987
1088,24.0
1128,24.000000000000033
1168,24.000000000000005
1208,24.000000000000033
1248,24.000000000000005
1288,24.000000000000044
1328,24.000000000000058
1368,23.99999999999999
1408,23.999999999999987
1448,24.0
1488,24.0
1528,24.0
1568,24.0
1608,23.99999999999999
1648,24.000000000000019
2,1, 7,21, 0,19, 0.00,10.00,SummerDesignDay
8,16.707321072823203
10,257771354.67913638
1762,0.0
1799,607555103.7087791
2,1, 7,21, 0,19,10.00,20.00,SummerDesignDay
8,16.601881826644556
10,257771354.67913638
1762,0.0
1799,584643246.6606207
2,1, 7,21, 0,19,20.00,30.00,SummerDesignDay
8,16.496030555252849
10,257771354.67913638
1762,0.0
1799,562870021.1045866
2,1, 7,21, 0,19,30.00,40.00,SummerDesignDay
8,16.389760181474104
10,257771354.67913638
1762,0.0
1799,541390030.9817584
2,1, 7,21, 0,19,40.00,50.00,SummerDesignDay
8,16.283067654262039
10,257771354.67913638
1762,0.0
1799,520294579.3984459
2,1, 7,21, 0,19,50.00,60.00,SummerDesignDay
8,16.17595057957811
10,257771354.67913638
1762,0.0
1799,499449344.3078734
2,1, 7,21, 0,19, 0.00,60.00,SummerDesignDay
888,24.000000000000033
928,24.000000000000033
968,23.999999999999959
1008,23.99999999999999
1048,24.00000000000001
1088,24.00000000000003
1128,24.000000000000033
1168,24.000000000000015
1208,23.999999999999984
1248,23.99999999999999
1288,24.000000000000026
1328,24.00000000000004
1368,24.000000000000019
1408,24.000000000000015
1448,24.000000000000044
1488,24.00000000000001
1528,24.00000000000003
1568,24.00000000000003
1608,24.000000000000015
1648,24.0
2,1, 7,21, 0,20, 0.00,10.00,SummerDesignDay
8,16.097123145563505
10,207399523.90108813
1762,0.0
1799,432336823.1048478
2,1, 7,21, 0,20,10.00,20.00,SummerDesignDay
8,16.018070242471564
10,207399523.90108813
1762,0.0
1799,414496647.51433017
2,1, 7,21, 0,20,20.00,30.00,SummerDesignDay
8,15.938779752340516
10,207399523.90108813
1762,0.0
1799,398707795.8855738
2,1, 7,21, 0,20,30.00,40.00,SummerDesignDay
8,15.85926152575189
10,207399523.90108813
1762,0.0
1799,382792007.5457276
2,1, 7,21, 0,20,40.00,50.00,SummerDesignDay
8,15.779503718563929
10,207399523.90108813
1762,0.0
1799,366662446.32856968
2,1, 7,21, 0,20,50.00,60.00,SummerDesignDay
8,15.699515709672767
10,207399523.90108813
1762,0.0
1799,350132175.46807608
2,1, 7,21, 0,20, 0.00,60.00,SummerDesignDay
888,23.999999999999998
928,24.00000000000003
968,24.000000000000019
1008,24.00000000000001
1048,24.000000000000005
1088,24.524981797970999
1128,24.000000000000015
1168,24.000000000000005
1208,24.000000000000019
1248,24.000000000000015
1288,24.000000000000026
1328,24.00000000000001
1368,24.000000000000005
1408,24.000000000000026
1448,24.00000000000004
1488,24.0
1528,24.000000000000015
1568,24.000000000000015
1608,24.00000000000001
1648,24.00000000000006
2,1, 7,21, 0,21, 0.00,10.00,SummerDesignDay
8,15.63389147320404
10,192169400.65428699
1762,0.0
1799,327008791.5068069
2,1, 7,21, 0,21,10.00,20.00,SummerDesignDay
8,15.56810827419793
10,192169400.65428699
1762,0.0
1799,311077025.0788674
2,1, 7,21, 0,21,20.00,30.00,SummerDesignDay
8,15.502170882753524
10,192169400.65428699
1762,0.0
1799,295518820.1855144
2,1, 7,21, 0,21,30.00,40.00,SummerDesignDay
8,15.436068032613852
10,192169400.65428699
1762,0.0
1799,280540414.66709086
2,1, 7,21, 0,21,40.00,50.00,SummerDesignDay
8,15.369804371206009
10,192169400.65428699
1762,0.0
1799,267844500.98128534
2,1, 7,21, 0,21,50.00,60.00,SummerDesignDay
8,15.303384603594449
10,192169400.65428699
1762,0.0
1799,255039282.61583806
2,1, 7,21, 0,21, 0.00,60.00,SummerDesignDay
888,24.000000000000005
928,24.00000000000003
968,23.99999999999999
1008,23.977463574536583
1048,24.00000000000001
1088,24.335314800990849