Program Version,EnergyPlus, Version 8.9.0-eba93e8e1b, YMD=2019.03.19 18:36
1,5,Environment Title[],Latitude[deg],Longitude[deg],Time Zone[],Elevation[m]
2,8,Day of Simulation[],Month[],Day of Month[],DST Indicator[1=yes 0=no],Hour[],StartMinute[],EndMinute[],DayType
3,5,Cumulative Day of Simulation[],Month[],Day of Month[],DST Indicator[1=yes 0=no],DayType  ! When Daily Report Variables Requested
4,2,Cumulative Days of Simulation[],Month[]  ! When Monthly Report Variables Requested
5,1,Cumulative Days of Simulation[] ! When Run Period Report Variables Requested
6,1,Calendar Year of Simulation[] ! When Annual Report Variables Requested
7,9,Environment,Site Outdoor Air Drybulb Temperature [C] !Monthly [Value,Min,Day,Hour,Minute,Max,Day,Hour,Minute]
8,1,Environment,Site Outdoor Air Wetbulb Temperature [C] !TimeStep
914,1,DINING - BAR LOUNGE/LEISURE-SPACE FUNCTION ZN,Zone Air Temperature [C] !Hourly
915,7,DINING - BAR LOUNGE/LEISURE-SPACE FUNCTION ZN,Zone Air Relative Humidity [%] !Daily [Value,Min,Hour,Minute,Max,Hour,Minute]
954,1,DINING - FAMILY SPACE-SPACE FUNCTION ZN,Zone Air Temperature [C] !Hourly
955,7,DINING - FAMILY SPACE-SPACE FUNCTION ZN,Zone Air Relative Humidity [%] !Daily [Value,Min,Hour,Minute,Max,Hour,Minute]
994,1,DINING - OTHER-SPACE FUNCTION ZN,Zone Air Temperature [C] !Hourly
995,7,DINING - OTHER-SPACE FUNCTION ZN,Zone Air Relative Humidity [%] !Daily [Value,Min,Hour,Minute,Max,Hour,Minute]
1034,1,DORMITORY - LIVING QUARTERS-SPACE FUNCTION ZN,Zone Air Temperature [C] !Hourly
1035,7,DORMITORY - LIVING QUARTERS-SPACE FUNCTION ZN,Zone Air Relative Humidity [%] !Daily [Value,Min,Hour,Minute,Max,Hour,Minute]
1074,1,DRESS./FITT. - PERFORMANCE ARTS-SPACE FUNCTION ZN,Zone Air Temperature [C] !Hourly
1075,7,DRESS./FITT. - PERFORMANCE ARTS-SPACE FUNCTION ZN,Zone Air Relative Humidity [%] !Daily [Value,Min,Hour,Minute,Max,Hour,Minute]
1114,1,DWELLING UNIT(S)-SPACE FUNCTION ZN,Zone Air Temperature [C] !Hourly
1115,7,DWELLING UNIT(S)-SPACE FUNCTION ZN,Zone Air Relative Humidity [%] !Daily [Value,Min,Hour,Minute,Max,Hour,Minute]
1154,1,ELECTRICAL/MECHANICAL-SCH-A-SPACE FUNCTION ZN,Zone Air Temperature [C] !Hourly
1155,7,ELECTRICAL/MECHANICAL-SCH-A-SPACE FUNCTION ZN,Zone Air Relative Humidity [%] !Daily [Value,Min,Hour,Minute,Max,Hour,Minute]
1194,1,ELECTRICAL/MECHANICAL-SCH-B-SPACE FUNCTION ZN,Zone Air Temperature [C] !Hourly
1195,7,ELECTRICAL/MECHANICAL-SCH-B-SPACE FUNCTION ZN,Zone Air Relative Humidity [%] !Daily [Value,Min,Hour,Minute,Max,Hour,Minute]
1234,1,ELECTRICAL/MECHANICAL-SCH-C-SPACE FUNCTION ZN,Zone Air Temperature [C] !Hourly
1235,7,ELECTRICAL/MECHANICAL-SCH-C-SPACE FUNCTION ZN,Zone Air Relative Humidity [%] !Daily [Value,Min,Hour,Minute,Max,Hour,Minute]
1274,1,ELECTRICAL/MECHANICAL-SCH-D-SPACE FUNCTION ZN,Zone Air Temperature [C] !Hourly
1275,7,ELECTRICAL/MECHANICAL-SCH-D-SPACE FUNCTION ZN,Zone Air Relative Humidity [%] !Daily [Value,Min,Hour,Minute,Max,Hour,Minute]
1314,1,ELECTRICAL/MECHANICAL-SCH-E-SPACE FUNCTION ZN,Zone Air Temperature [C] !Hourly
1315,7,ELECTRICAL/MECHANICAL-SCH-E-SPACE FUNCTION ZN,Zone Air Relative Humidity [%] !Daily [Value,Min,Hour,Minute,Max,Hour,Minute]
1354,1,ELECTRICAL/MECHANICAL-SCH-F-SPACE FUNCTION ZN,Zone Air Temperature [C] !Hourly
1355,7,ELECTRICAL/MECHANICAL-SCH-F-SPACE FUNCTION ZN,Zone Air Relative Humidity [%] !Daily [Value,Min,Hour,Minute,Max,Hour,Minute]
1394,1,ELECTRICAL/MECHANICAL-SCH-G-SPACE FUNCTION ZN,Zone Air Temperature [C] !Hourly
1395,7,ELECTRICAL/MECHANICAL-SCH-G-SPACE FUNCTION ZN,Zone Air Relative Humidity [%] !Daily [Value,Min,Hour,Minute,Max,Hour,Minute]
1434,1,ELECTRICAL/MECHANICAL-SCH-H-SPACE FUNCTION ZN,Zone Air Temperature [C] !Hourly
1435,7,ELECTRICAL/MECHANICAL-SCH-H-SPACE FUNCTION ZN,Zone Air Relative Humidity [%] !Daily [Value,Min,Hour,Minute,Max,Hour,Minute]
1474,1,ELECTRICAL/MECHANICAL-SCH-I-SPACE FUNCTION ZN,Zone Air Temperature [C] !Hourly
1475,7,ELECTRICAL/MECHANICAL-SCH-I-SPACE FUNCTION ZN,Zone Air Relative Humidity [%] !Daily [Value,Min,Hour,Minute,Max,Hour,Minute]
1514,1,FIRE STATION - ENGINE ROOM-SPACE FUNCTION ZN,Zone Air Temperature [C] !Hourly
1515,7,FIRE STATION - ENGINE ROOM-SPACE FUNCTION ZN,Zone Air Relative Humidity [%] !Daily [Value,Min,Hour,Minute,Max,Hour,Minute]
1554,1,FIRE STATION - QUARTERS-SPACE FUNCTION ZN,Zone Air Temperature [C] !Hourly
1555,7,FIRE STATION - QUARTERS-SPACE FUNCTION ZN,Zone Air Relative Humidity [%] !Daily [Value,Min,Hour,Minute,Max,Hour,Minute]
1594,1,FOOD PREPARATION - VENTED-SPACE FUNCTION ZN,Zone Air Temperature [C] !Hourly
1595,7,FOOD PREPARATION - VENTED-SPACE FUNCTION ZN,Zone Air Relative Humidity [%] !Daily [Value,Min,Hour,Minute,Max,Hour,Minute]
1634,1,FOOD PREPARATION-SPACE FUNCTION ZN,Zone Air Temperature [C] !Hourly
1635,7,FOOD PREPARATION-SPACE FUNCTION ZN,Zone Air Relative Humidity [%] !Daily [Value,Min,Hour,Minute,Max,Hour,Minute]
1674,1,GYM - AUDIENCE-SPACE FUNCTION ZN,Zone Air Temperature [C] !Hourly
1675,7,GYM - AUDIENCE-SPACE FUNCTION ZN,Zone Air Relative Humidity [%] !Daily [Value,Min,Hour,Minute,Max,Hour,Minute]
10,1,Electricity:Facility [J] !TimeStep
1825,1,DistrictCooling:Facility [J] !TimeStep
1788,1,DistrictHeating:Facility [J] !TimeStep
End of Data Dictionary
1,FORT MCMURRAY AP ANN CLG .4% CONDNS DB=>MWB,  56.65,-111.22,  -7.00, 369.10
2,1, 7,21, 0, 1, 0.00,10.00,SummerDesignDay
8,14.218136923962174
10,154502651.6587011
1788,227648.88562308748
1825,90522186.19565808
2,1, 7,21, 0, 1,10.00,20.00,SummerDesignDay
8,14.171982153293495
10,154502651.6587011
1788,4594729.456821857
1825,88024113.8008141
2,1, 7,21, 0, 1,20.00,30.00,SummerDesignDay
8,14.125744780286427
10,154502651.6587011
1788,6114278.327242127
1825,85883320.44774726
2,1, 7,21, 0, 1,30.00,40.00,SummerDesignDay
8,14.079436086331978
10,154502651.6587011
1788,7616001.200159246
1825,83726514.15262959
2,1, 7,21, 0, 1,40.00,50.00,SummerDesignDay
8,14.033050387896898
10,154502651.6587011
1788,9691303.35366388
1825,81515903.96529863
2,1, 7,21, 0, 1,50.00,60.00,SummerDesignDay
8,13.986581233564835
10,154502651.6587011
1788,15191729.933965169
1825,79329606.74105507
2,1, 7,21, 0, 1, 0.00,60.00,SummerDesignDay
914,22.207309692679016
954,22.204941493068458
994,22.017222653116183
1034,24.000000000000005
1074,24.01502001505547
1114,24.000000000000005
1154,24.569277387065566
1194,24.000000000000005
1234,24.720447919061355
1274,24.626204718173729
1314,23.938733010901534
1354,24.000000000000005
1394,24.00000000000001
1434,24.000000000000005
1474,25.43317396732535
1514,24.000000000000019
1554,23.856002242417856
1594,24.000000000000019
1634,24.000000000000026
1674,22.01001960088901
2,1, 7,21, 0, 2, 0.00,10.00,SummerDesignDay
8,13.95555882260429
10,90406310.09973537
1788,35989341.56084493
1825,37540511.289848189
2,1, 7,21, 0, 2,10.00,20.00,SummerDesignDay
8,13.924507755336454
10,90406310.09973537
1788,40268725.93153848
1825,36214651.86031272
2,1, 7,21, 0, 2,20.00,30.00,SummerDesignDay
8,13.893416042989206
10,90406310.09973537
1788,43153547.41392781
1825,35135510.262137148
2,1, 7,21, 0, 2,30.00,40.00,SummerDesignDay
8,13.862289589689029
10,90406310.09973537
1788,45909391.24016197
1825,34079334.18466544
2,1, 7,21, 0, 2,40.00,50.00,SummerDesignDay
8,13.831134407608739
10,90406310.09973537
1788,48532304.526460859
1825,33049386.877994896
2,1, 7,21, 0, 2,50.00,60.00,SummerDesignDay
8,13.799938415548118
10,90406310.09973537
1788,51069659.06641337
1825,32037536.017601838
2,1, 7,21, 0, 2, 0.00,60.00,SummerDesignDay
914,22.00030211216229
954,22.00021425957605
994,22.00000002730059
1034,24.00000000000001
1074,23.699876792595956
1114,24.000000000000005
1154,24.42729885406781
1194,24.578778733532926
1234,24.590363822774525
1274,24.53218662576972
1314,23.797846078586955
1354,24.00000000000001
1394,24.00000000000001
1434,24.00000000000001
1474,25.50834162059728
1514,24.000000000000015
1554,23.366682303055926
1594,24.292744597958877
1634,24.574718426322808
1674,22.00000004075545
2,1, 7,21, 0, 3, 0.00,10.00,SummerDesignDay
8,13.776521671948676
10,45151686.73272832
1788,0.0
1825,31155418.897640379
2,1, 7,21, 0, 3,10.00,20.00,SummerDesignDay
8,13.753085235778466
10,45151686.73272832
1788,0.0
1825,30242832.783785985
2,1, 7,21, 0, 3,20.00,30.00,SummerDesignDay
8,13.729636002354969
10,45151686.73272832
1788,0.0
1825,29430195.039287855
2,1, 7,21, 0, 3,30.00,40.00,SummerDesignDay
8,13.706147375533054
10,45151686.73272832
1788,0.0
1825,28646380.899745674
2,1, 7,21, 0, 3,40.00,50.00,SummerDesignDay
8,13.682651961920304
10,45151686.73272832
1788,0.0
1825,27840114.612294929
2,1, 7,21, 0, 3,50.00,60.00,SummerDesignDay
8,13.659136670643687
10,45151686.73272832
1788,0.0
1825,27030441.4476088
2,1, 7,21, 0, 3, 0.00,60.00,SummerDesignDay
914,20.443429559252914
954,20.649592868694794
994,20.488716541557144
1034,24.000000000000019
1074,23.454954790345643
1114,24.00000000000001
1154,24.323270071491135
1194,24.134778820638265
1234,24.499176433019316
1274,24.44301001718442
1314,23.693896958820088
1354,24.00000000000001
1394,24.000000000000005
1434,24.00000000000001
1474,25.22810052740576
1514,23.980010375139185
1554,22.980140682059259
1594,23.649009802410974
1634,23.974994341560149
1674,20.798116032030266
2,1, 7,21, 0, 4, 0.00,10.00,SummerDesignDay
8,13.63560137410855
10,43542950.12088008
1788,0.0
1825,25279668.678699905
2,1, 7,21, 0, 4,10.00,20.00,SummerDesignDay
8,13.612040802606578
10,43542950.12088008
1788,0.0
1825,24386976.361270869
2,1, 7,21, 0, 4,20.00,30.00,SummerDesignDay
8,13.58846620506876
10,43542950.12088008
1788,0.0
1825,23546574.80153276
2,1, 7,21, 0, 4,30.00,40.00,SummerDesignDay
8,13.56487178447336
10,43542950.12088008
1788,0.0
1825,22698266.66384179
2,1, 7,21, 0, 4,40.00,50.00,SummerDesignDay
8,13.541257354069103
10,43542950.12088008
1788,0.0
1825,21812489.452322604
2,1, 7,21, 0, 4,50.00,60.00,SummerDesignDay
8,13.517617463812285
10,43542950.12088008
1788,0.0
1825,20930438.647744728
2,1, 7,21, 0, 4, 0.00,60.00,SummerDesignDay
914,19.560380968852028
954,19.810049918529974
994,19.63009126309693
1034,24.000000000000005
1074,23.18938740099909
1114,24.00000000000001
1154,24.205366279096677
1194,23.362880162546064
1234,24.39416764927805
1274,24.327954507676997
1314,23.56624830174133
1354,24.0
1394,24.00000000000001
1434,24.0
1474,25.055066088457666
1514,23.85676513075406
1554,22.58852665392884
1594,23.171899093866185
1634,23.44419332065343
1674,20.269236948750139
2,1, 7,21, 0, 5, 0.00,10.00,SummerDesignDay
8,13.50185415824011
10,43542950.12088008
1788,0.0
1825,20129026.45480737
2,1, 7,21, 0, 5,10.00,20.00,SummerDesignDay
8,13.486076034032447
10,43542950.12088008
1788,0.0
1825,19968607.480931067
2,1, 7,21, 0, 5,20.00,30.00,SummerDesignDay
8,13.470289340350983
10,43542950.12088008
1788,0.0
1825,19760168.193430507
2,1, 7,21, 0, 5,30.00,40.00,SummerDesignDay
8,13.454493322631063
10,43542950.12088008
1788,0.0
1825,19559271.53647974
2,1, 7,21, 0, 5,40.00,50.00,SummerDesignDay
8,13.438688835118548
10,43542950.12088008
1788,0.0
1825,19331944.191192025
2,1, 7,21, 0, 5,50.00,60.00,SummerDesignDay
8,13.422888173889437
10,43542950.12088008
1788,0.0
1825,19051992.461612718
2,1, 7,21, 0, 5, 0.00,60.00,SummerDesignDay
914,19.247158911026717
954,19.63452172018493
994,19.420322760779233
1034,23.95394716947187
1074,22.959853001410765
1114,24.00000000000001
1154,24.099724073313899
1194,23.032898097294348
1234,24.298235252481964
1274,24.212532833447388
1314,23.43980081991567
1354,24.000000000000005
1394,24.000000000000005
1434,24.00000000000001
1474,25.018521835400106
1514,23.78642064175341
1554,22.33301860898463
1594,22.95525677553255
1634,23.24939612695114
1674,20.026361547048436
2,1, 7,21, 0, 6, 0.00,10.00,SummerDesignDay
8,13.438688835118548
10,43542950.12088008
1788,0.0
1825,18922240.558744227
2,1, 7,21, 0, 6,10.00,20.00,SummerDesignDay
8,13.454493322631063
10,43542950.12088008
1788,0.0
1825,18735073.736190127
2,1, 7,21, 0, 6,20.00,30.00,SummerDesignDay
8,13.470289340350983
10,43542950.12088008
1788,0.0
1825,18508145.726159809
2,1, 7,21, 0, 6,30.00,40.00,SummerDesignDay
8,13.486076034032447
10,43542950.12088008
1788,0.0
1825,18267704.548440808
2,1, 7,21, 0, 6,40.00,50.00,SummerDesignDay
8,13.50185415824011
10,43542950.12088008
1788,0.0
1825,18023968.924821676
2,1, 7,21, 0, 6,50.00,60.00,SummerDesignDay
8,13.517617463812285
10,43542950.12088008
1788,0.0
1825,17794633.804940575
2,1, 7,21, 0, 6, 0.00,60.00,SummerDesignDay
914,19.2697372690339
954,20.270658607231863
994,19.612337583728473
1034,23.808357676659666
1074,22.822847208413667
1114,24.00000000000001
1154,24.021797044558
1194,23.114721871091907
1234,24.239272413724718
1274,24.118997623940733
1314,23.337051655652997
1354,24.0
1394,24.00000000000001
1434,24.000000000000026
1474,25.431144132500078
1514,23.839250526187727
1554,22.40228793367616
1594,22.852389214268276
1634,23.49616794925321
1674,19.945853777707194
2,1, 7,21, 0, 7, 0.00,10.00,SummerDesignDay
8,13.572736920571789
10,51264135.861949499
1788,0.0
1825,20761395.077508585
2,1, 7,21, 0, 7,10.00,20.00,SummerDesignDay
8,13.627748229152554
10,51264135.861949499
1788,0.0
1825,21022214.57137932
2,1, 7,21, 0, 7,20.00,30.00,SummerDesignDay
8,13.682651961920304
10,51264135.861949499
1788,0.0
1825,21160942.843248469
2,1, 7,21, 0, 7,30.00,40.00,SummerDesignDay
8,13.737448093244995
10,51264135.861949499
1788,0.0
1825,21396876.943389477
2,1, 7,21, 0, 7,40.00,50.00,SummerDesignDay
8,13.792137011831216
10,51264135.861949499
1788,0.0
1825,21597522.398297967
2,1, 7,21, 0, 7,50.00,60.00,SummerDesignDay
8,13.846719282840333
10,51264135.861949499
1788,0.0
1825,21889415.762979647
2,1, 7,21, 0, 7, 0.00,60.00,SummerDesignDay
914,19.748392089672099
954,21.29111130687636
994,20.02524655672949
1034,23.80663503558814
1074,22.848721467313639
1114,24.000000000000015
1154,23.99899032522984
1194,23.57092265156913
1234,24.269373134017106
1274,24.0820743283796
1314,23.293489339123295
1354,24.000000000000005
1394,24.0
1434,24.000000000000015
1474,25.965367921305288
1514,23.91421806449895
1554,22.892707617778627
1594,22.921741175794677
1634,23.949584066675145
1674,20.161258895868984
2,1, 7,21, 0, 8, 0.00,10.00,SummerDesignDay
8,13.978831900527043
10,75490809.23742515
1788,0.0
1825,43102526.236637618
2,1, 7,21, 0, 8,10.00,20.00,SummerDesignDay
8,14.110321014287419
10,75490809.23742515
1788,0.0
1825,35034802.14711454
2,1, 7,21, 0, 8,20.00,30.00,SummerDesignDay
8,14.241191509616986
10,75490809.23742515
1788,0.0
1825,42098130.86782673
2,1, 7,21, 0, 8,30.00,40.00,SummerDesignDay
8,14.371447531304272
10,75490809.23742515
1788,0.0
1825,50277044.15459324
2,1, 7,21, 0, 8,40.00,50.00,SummerDesignDay
8,14.501093766564925
10,75490809.23742515
1788,0.0
1825,54766811.43192818
2,1, 7,21, 0, 8,50.00,60.00,SummerDesignDay
8,14.630134792273804
10,75490809.23742515
1788,0.0
1825,59594067.6228317
2,1, 7,21, 0, 8, 0.00,60.00,SummerDesignDay
914,20.949259372773477
954,22.808492877343146
994,21.184728253926996
1034,23.98395981631784
1074,23.1402012356493
1114,24.00000000000001
1154,23.999999999961806
1194,24.56577286485636
1234,23.993263298119265
1274,23.998288797559707
1314,23.35105221740632
1354,24.000000000000005
1394,24.000000000000005
1434,24.00000000000001
1474,26.451807577257474
1514,23.999952548656695
1554,23.833151828812306
1594,23.258692389687864
1634,24.581614013598935
1674,20.860704010532353
2,1, 7,21, 0, 9, 0.00,10.00,SummerDesignDay
8,14.773641492809972
10,107136608.37322983
1788,0.0
1825,116169216.50534189
2,1, 7,21, 0, 9,10.00,20.00,SummerDesignDay
8,14.91640948124148
10,107136608.37322983
1788,0.0
1825,106532177.44700971
2,1, 7,21, 0, 9,20.00,30.00,SummerDesignDay
8,15.05843890714102
10,107136608.37322983
1788,0.0
1825,126047471.99467324
2,1, 7,21, 0, 9,30.00,40.00,SummerDesignDay
8,15.199735893563798
10,107136608.37322983
1788,0.0
1825,140532541.17528478
2,1, 7,21, 0, 9,40.00,50.00,SummerDesignDay
8,15.340306256439395
10,107136608.37322983
1788,0.0
1825,154787259.20872725
2,1, 7,21, 0, 9,50.00,60.00,SummerDesignDay
8,15.48015101768072
10,107136608.37322983
1788,0.0
1825,171514413.671401
2,1, 7,21, 0, 9, 0.00,60.00,SummerDesignDay
914,22.83822953953177
954,23.977706386335844
994,23.07754840063691
1034,23.99999999999997
1074,23.83602592464378
1114,24.000000000000005
1154,24.000000000000005
1194,23.972983831828846
1234,23.999999999999984
1274,23.999999999999998
1314,23.85220662653778
1354,24.0
1394,24.000000000000005
1434,24.000000000000005
1474,26.877842970520395
1514,23.999999999999987
1554,23.99999999958244
1594,23.836832365028429
1634,23.980569920354399
1674,22.038431722656516
2,1, 7,21, 0,10, 0.00,10.00,SummerDesignDay
8,15.60467292907716
10,157173941.94229264
1788,0.0
1825,228787789.30208827
2,1, 7,21, 0,10,10.00,20.00,SummerDesignDay
8,15.72862731650033
10,157173941.94229264
1788,0.0
1825,254811789.20981933
2,1, 7,21, 0,10,20.00,30.00,SummerDesignDay
8,15.852017409284228
10,157173941.94229264
1788,0.0
1825,275566156.9202848
2,1, 7,21, 0,10,30.00,40.00,SummerDesignDay
8,15.974848118364367
10,157173941.94229264
1788,0.0
1825,296521211.9303505
2,1, 7,21, 0,10,40.00,50.00,SummerDesignDay
8,16.097123145563505
10,157173941.94229264
1788,0.0
1825,317177355.4856729
2,1, 7,21, 0,10,50.00,60.00,SummerDesignDay
8,16.218846351168599
10,157173941.94229264
1788,0.0
1825,341453705.85505518
2,1, 7,21, 0,10, 0.00,60.00,SummerDesignDay
914,23.997082450055968
954,23.999999998171558
994,23.99959507160196
1034,24.00000000000001
1074,23.999999993724374
1114,24.000000000000019
1154,24.00000000000001
1194,23.999999999998086
1234,23.999999999999987
1274,24.000000000000005
1314,23.999999999970759
1354,24.0
1394,24.000000000000005
1434,24.000000000000019
1474,27.23395418030965
1514,23.99999999999999
1554,24.00000000000003
1594,23.999999893827554
1634,23.999999999993617
1674,23.569230960235104
2,1, 7,21, 0,11, 0.00,10.00,SummerDesignDay
8,16.325793027093189
10,184091217.92405824
1788,0.0
1825,381343761.6453083
2,1, 7,21, 0,11,10.00,20.00,SummerDesignDay
8,16.432322158488288
10,184091217.92405824
1788,0.0
1825,402519544.07489606
2,1, 7,21, 0,11,20.00,30.00,SummerDesignDay
8,16.538424180249178
10,184091217.92405824
1788,0.0
1825,420146177.85967859
2,1, 7,21, 0,11,30.00,40.00,SummerDesignDay
8,16.644108396469087
10,184091217.92405824
1788,0.0
1825,436785330.3954404
2,1, 7,21, 0,11,40.00,50.00,SummerDesignDay
8,16.749376736593655
10,184091217.92405824
1788,0.0
1825,453155856.73115327
2,1, 7,21, 0,11,50.00,60.00,SummerDesignDay
8,16.854232613237156
10,184091217.92405824
1788,0.0
1825,469178339.2099453
2,1, 7,21, 0,11, 0.00,60.00,SummerDesignDay
914,23.99999998634993
954,23.99999999999997
994,23.99999999830708
1034,24.00000000000001
1074,24.000000000000019
1114,24.00000000000003
1154,24.00000000000001
1194,24.00000000000004
1234,24.000000000000015
1274,24.000000000000019
1314,24.0
1354,24.00000000000001
1394,24.00000000000001
1434,24.00000000000001
1474,27.264632355691547
1514,24.000000000000005
1554,24.0
1594,24.000000000000019
1634,24.000000000000019
1674,23.999257369434529
2,1, 7,21, 0,12, 0.00,10.00,SummerDesignDay
8,16.92390823520069
10,205109792.99571345
1788,0.0
1825,507008927.16240736
2,1, 7,21, 0,12,10.00,20.00,SummerDesignDay
8,16.99340178950456
10,205109792.99571345
1788,0.0
1825,520337053.0612345
2,1, 7,21, 0,12,20.00,30.00,SummerDesignDay
8,17.06272006743463
10,205109792.99571345
1788,0.0
1825,532216761.94830688
2,1, 7,21, 0,12,30.00,40.00,SummerDesignDay
8,17.131853229172639
10,205109792.99571345
1788,0.0
1825,544016077.5575649
2,1, 7,21, 0,12,40.00,50.00,SummerDesignDay
8,17.200807172194087
10,205109792.99571345
1788,0.0
1825,555625153.6442431
2,1, 7,21, 0,12,50.00,60.00,SummerDesignDay
8,17.269582116758607
10,205109792.99571345
1788,0.0
1825,567013358.4949288
2,1, 7,21, 0,12, 0.00,60.00,SummerDesignDay
914,23.999999999999319
954,24.000000000000005
994,23.999999999999927
1034,24.0
1074,23.999999999999998
1114,24.000000000000019
1154,24.000000000000015
1194,24.000000000000087
1234,24.000000000000015
1274,24.000000000000019
1314,24.000000000000015
1354,24.000000000000005
1394,24.000000000000005
1434,24.000000000000005
1474,27.149577375447547
1514,24.000000000000015
1554,24.000000000000058
1594,24.0
1634,24.0
1674,23.999999856244288
2,1, 7,21, 0,13, 0.00,10.00,SummerDesignDay
8,17.32447360221357
10,203501056.38386525
1788,0.0
1825,596093034.7748065
2,1, 7,21, 0,13,10.00,20.00,SummerDesignDay
8,17.379251291230806
10,203501056.38386525
1788,0.0
1825,605842637.6643167
2,1, 7,21, 0,13,20.00,30.00,SummerDesignDay
8,17.433921312061729
10,203501056.38386525
1788,0.0
1825,614753617.9720287
2,1, 7,21, 0,13,30.00,40.00,SummerDesignDay
8,17.488473222557489
10,203501056.38386525
1788,0.0
1825,623166471.2028722
2,1, 7,21, 0,13,40.00,50.00,SummerDesignDay
8,17.542913447755134
10,203501056.38386525
1788,0.0
1825,631313926.7097728
2,1, 7,21, 0,13,50.00,60.00,SummerDesignDay
8,17.59724609886134
10,203501056.38386525
1788,0.0
1825,639137980.6666842
2,1, 7,21, 0,13, 0.00,60.00,SummerDesignDay
914,24.000000000000044
954,24.000000000000044
994,24.0
1034,24.0
1074,24.000000000000015
1114,23.99999999999999
1154,24.000000000000005
1194,24.000000000000026
1234,24.000000000000026
1274,24.00000000000003
1314,24.0
1354,24.0
1394,24.00000000000001
1434,24.000000000000019
1474,27.29112946006191
1514,24.0
1554,24.000000000000069
1594,24.000000000000015
1634,24.000000000000033
1674,23.999999999973995
2,1, 7,21, 0,14, 0.00,10.00,SummerDesignDay
8,17.6311450462694
10,203501056.38386525
1788,0.0
1825,639936737.7723738
2,1, 7,21, 0,14,10.00,20.00,SummerDesignDay
8,17.665000449016245
10,203501056.38386525
1788,0.0
1825,644756422.3241567
2,1, 7,21, 0,14,20.00,30.00,SummerDesignDay
8,17.698812743128934
10,203501056.38386525
1788,0.0
1825,649595201.4873064
2,1, 7,21, 0,14,30.00,40.00,SummerDesignDay
8,17.732582050940107
10,203501056.38386525
1788,0.0
1825,654384092.857522
2,1, 7,21, 0,14,40.00,50.00,SummerDesignDay
8,17.766307345121004
10,203501056.38386525
1788,0.0
1825,659171265.4507458
2,1, 7,21, 0,14,50.00,60.00,SummerDesignDay
8,17.79999023167558
10,203501056.38386525
1788,0.0
1825,663955818.3489391
2,1, 7,21, 0,14, 0.00,60.00,SummerDesignDay
914,24.000000000000047
954,24.00000000000004
994,24.000000000000026
1034,24.0
1074,23.999999999999987
1114,24.00000000000001
1154,24.0
1194,24.000000000000026
1234,24.000000000000019
1274,24.00000000000001
1314,24.00000000000001
1354,24.000000000000005
1394,24.000000000000015
1434,24.0
1474,27.476474477291636
1514,24.000000000000015
1554,24.0
1594,24.000000000000058
1634,24.000000000000015
1674,24.000000000000005
2,1, 7,21, 0,15, 0.00,10.00,SummerDesignDay
8,17.79999023167558
10,203501056.38386525
1788,0.0
1825,713997586.5841429
2,1, 7,21, 0,15,10.00,20.00,SummerDesignDay
8,17.79999023167558
10,203501056.38386525
1788,0.0
1825,667189509.6850581
2,1, 7,21, 0,15,20.00,30.00,SummerDesignDay
8,17.79999023167558
10,203501056.38386525
1788,0.0
1825,691273243.6354318
2,1, 7,21, 0,15,30.00,40.00,SummerDesignDay
8,17.79999023167558
10,203501056.38386525
1788,0.0
1825,666272154.8577598
2,1, 7,21, 0,15,40.00,50.00,SummerDesignDay
8,17.79999023167558
10,203501056.38386525
1788,0.0
1825,668515770.3815066
2,1, 7,21, 0,15,50.00,60.00,SummerDesignDay
8,17.79999023167558
10,203501056.38386525
1788,0.0
1825,668023056.5126263
2,1, 7,21, 0,15, 0.00,60.00,SummerDesignDay
914,23.99999999999999
954,24.000000000000033
994,24.000000000000069
1034,24.000000000000005
1074,24.000000000000026
1114,24.00000000000004
1154,24.0
1194,24.000000000000005
1234,24.0
1274,23.999999999999998
1314,24.00000000000001
1354,24.0
1394,24.000000000000019
1434,24.0
1474,23.862954861952774
1514,24.00000000000001
1554,23.999999999999969
1594,24.0
1634,23.999999999999976
1674,23.99999999999999
2,1, 7,21, 0,16, 0.00,10.00,SummerDesignDay
8,17.759562446305357
10,210346624.41338028
1788,0.0
1825,651437859.1846241
2,1, 7,21, 0,16,10.00,20.00,SummerDesignDay
8,17.71907809634183
10,210346624.41338028
1788,0.0
1825,645036080.343102
2,1, 7,21, 0,16,20.00,30.00,SummerDesignDay
8,17.67853788661001
10,210346624.41338028
1788,0.0
1825,638407468.2219713
2,1, 7,21, 0,16,30.00,40.00,SummerDesignDay
8,17.63791796367351
10,210346624.41338028
1788,0.0
1825,631447660.6658038
2,1, 7,21, 0,16,40.00,50.00,SummerDesignDay
8,17.59724609886134
10,210346624.41338028
1788,0.0
1825,624249208.6806212
2,1, 7,21, 0,16,50.00,60.00,SummerDesignDay
8,17.55650676726033
10,210346624.41338028
1788,0.0
1825,616825867.4293392
2,1, 7,21, 0,16, 0.00,60.00,SummerDesignDay
914,24.0
954,23.999999999999976
994,24.0
1034,24.00000000000001
1074,23.99999999999999
1114,24.000000000000019
1154,24.000000000000005
1194,24.000000000000044
1234,23.99999999999999
1274,24.00000000000001
1314,23.999999999999987
1354,24.000000000000005
1394,24.000000000000015
1434,24.0
1474,24.00000000000001
1514,24.000000000000026
1554,24.000000000000019
1594,24.00000000000003
1634,24.000000000000033
1674,24.000000000000005
2,1, 7,21, 0,17, 0.00,10.00,SummerDesignDay
8,17.50209486331892
10,208460390.11039088
1788,0.0
1825,606998082.3518869
2,1, 7,21, 0,17,10.00,20.00,SummerDesignDay
8,17.447570789624618
10,208460390.11039088
1788,0.0
1825,597388267.2457708
2,1, 7,21, 0,17,20.00,30.00,SummerDesignDay
8,17.392929544208135
10,208460390.11039088
1788,0.0
1825,587691332.5967893
2,1, 7,21, 0,17,30.00,40.00,SummerDesignDay
8,17.33818013976614
10,208460390.11039088
1788,0.0
1825,577857021.6698229
2,1, 7,21, 0,17,40.00,50.00,SummerDesignDay
8,17.283317298559309
10,208460390.11039088
1788,0.0
1825,567887051.4154203
2,1, 7,21, 0,17,50.00,60.00,SummerDesignDay
8,17.22833552437677
10,208460390.11039088
1788,0.0
1825,557773351.5712335
2,1, 7,21, 0,17, 0.00,60.00,SummerDesignDay
914,23.999999999999987
954,23.999999999999934
994,24.00000000000004
1034,24.0
1074,24.000000000000015
1114,24.0
1154,24.000000000000015
1194,24.0
1234,24.000000000000026
1274,24.00000000000001
1314,24.000000000000005
1354,24.00000000000001
1394,24.000000000000026
1434,24.000000000000015
1474,24.00000000000004
1514,24.000000000000015
1554,24.000000000000076
1594,24.000000000000015
1634,23.999999999999998
1674,24.000000000000019
2,1, 7,21, 0,18, 0.00,10.00,SummerDesignDay
8,17.159453019160176
10,199752962.5766686
1788,0.0
1825,547437583.3950566
2,1, 7,21, 0,18,10.00,20.00,SummerDesignDay
8,17.090391773337136
10,199752962.5766686
1788,0.0
1825,535207289.1554979
2,1, 7,21, 0,18,20.00,30.00,SummerDesignDay
8,17.021151077964786
10,199752962.5766686
1788,0.0
1825,522881192.8409305
2,1, 7,21, 0,18,30.00,40.00,SummerDesignDay
8,16.951729380464653
10,199752962.5766686
1788,0.0
1825,510599625.3007161
2,1, 7,21, 0,18,40.00,50.00,SummerDesignDay
8,16.882126503829249
10,199752962.5766686
1788,0.0
1825,498295144.3679077
2,1, 7,21, 0,18,50.00,60.00,SummerDesignDay
8,16.812341807494034
10,199752962.5766686
1788,0.0
1825,485847668.1321478
2,1, 7,21, 0,18, 0.00,60.00,SummerDesignDay
914,24.000000000000019
954,24.000000000000044
994,24.000000000000005
1034,24.000000000000015
1074,24.00000000000003
1114,24.0
1154,24.000000000000015
1194,23.999999999999984
1234,23.99999999999999
1274,24.00000000000001
1314,24.00000000000003
1354,23.999999999999998
1394,24.000000000000044
1434,24.000000000000015
1474,24.000000000000019
1514,24.0
1554,24.000000000000069
1594,24.000000000000026
1634,24.000000000000047
1674,23.99999999999999
2,1, 7,21, 0,19, 0.00,10.00,SummerDesignDay
8,16.707321072823203
10,198571722.40384967
1788,0.0
1825,487313828.08219996
2,1, 7,21, 0,19,10.00,20.00,SummerDesignDay
8,16.601881826644556
10,198571722.40384967
1788,0.0
1825,469691734.4878146
2,1, 7,21, 0,19,20.00,30.00,SummerDesignDay
8,16.496030555252849
10,198571722.40384967
1788,0.0
1825,450995651.30834928
2,1, 7,21, 0,19,30.00,40.00,SummerDesignDay
8,16.389760181474104
10,198571722.40384967
1788,0.0
1825,432079117.6772406
2,1, 7,21, 0,19,40.00,50.00,SummerDesignDay
8,16.283067654262039
10,198571722.40384967
1788,0.0
1825,413310360.8245648
2,1, 7,21, 0,19,50.00,60.00,SummerDesignDay
8,16.17595057957811
10,198571722.40384967
1788,0.0
1825,394630625.68046709
2,1, 7,21, 0,19, 0.00,60.00,SummerDesignDay
914,24.000000000000033
954,24.0
994,24.00000000000001
1034,24.000000000000015
1074,24.00000000000003
1114,24.00000000000001
1154,24.00000000000001
1194,24.000000000000033
1234,24.00000000000001
1274,24.0
1314,24.00000000000001
1354,24.00000000000001
1394,24.00000000000001
1434,24.0
1474,24.00000000000001
1514,24.00000000000001
1554,24.000000000000033
1594,24.000000000000015
1634,23.999999999999955
1674,23.999999999999998
2,1, 7,21, 0,20, 0.00,10.00,SummerDesignDay
8,16.097123145563505
10,219525423.01659335
1788,0.0
1825,401635089.98260876
2,1, 7,21, 0,20,10.00,20.00,SummerDesignDay
8,16.018070242471564
10,219525423.01659335
1788,0.0
1825,389177997.6856485
2,1, 7,21, 0,20,20.00,30.00,SummerDesignDay
8,15.938779752340516
10,219525423.01659335
1788,0.0
1825,375309560.08302369
2,1, 7,21, 0,20,30.00,40.00,SummerDesignDay
8,15.85926152575189
10,219525423.01659335
1788,0.0
1825,361219458.62704399
2,1, 7,21, 0,20,40.00,50.00,SummerDesignDay
8,15.779503718563929
10,219525423.01659335
1788,0.0
1825,346762475.1227296
2,1, 7,21, 0,20,50.00,60.00,SummerDesignDay
8,15.699515709672767
10,219525423.01659335
1788,0.0
1825,331836535.9843187
2,1, 7,21, 0,20, 0.00,60.00,SummerDesignDay
914,23.99999999999999
954,24.000000000000026
994,24.00000000000004
1034,24.00000000000001
1074,24.0
1114,24.000000000000019
1154,24.000000000000015
1194,24.000000000000044
1234,24.00000000000001
1274,24.00000000000001
1314,24.406071865878528
1354,24.0
1394,24.000000000000015
1434,24.00000000000003
1474,23.999999999999998
1514,24.000000000000015
1554,24.000000000000015
1594,24.000000000000015
1634,24.000000000000015
1674,24.00000000000003
2,1, 7,21, 0,21, 0.00,10.00,SummerDesignDay
8,15.63389147320404
10,217755062.7515122
1788,0.0
1825,317269326.59915485
2,1, 7,21, 0,21,10.00,20.00,SummerDesignDay
8,15.56810827419793
10,217755062.7515122
1788,0.0
1825,303195330.15757158
2,1, 7,21, 0,21,20.00,30.00,SummerDesignDay
8,15.502170882753524
10,217755062.7515122
1788,0.0
1825,288825118.4288081
2,1, 7,21, 0,21,30.00,40.00,SummerDesignDay
8,15.436068032613852
10,217755062.7515122
1788,0.0
1825,274414997.85762277
2,1, 7,21, 0,21,40.00,50.00,SummerDesignDay
8,15.369804371206009