Program Version,EnergyPlus, Version 8.9.0-eba93e8e1b, YMD=2019.03.28 13:40
1,5,Environment Title[],Latitude[deg],Longitude[deg],Time Zone[],Elevation[m]
2,8,Day of Simulation[],Month[],Day of Month[],DST Indicator[1=yes 0=no],Hour[],StartMinute[],EndMinute[],DayType
3,5,Cumulative Day of Simulation[],Month[],Day of Month[],DST Indicator[1=yes 0=no],DayType  ! When Daily Report Variables Requested
4,2,Cumulative Days of Simulation[],Month[]  ! When Monthly Report Variables Requested
5,1,Cumulative Days of Simulation[] ! When Run Period Report Variables Requested
6,1,Calendar Year of Simulation[] ! When Annual Report Variables Requested
7,9,Environment,Site Outdoor Air Drybulb Temperature [C] !Monthly [Value,Min,Day,Hour,Minute,Max,Day,Hour,Minute]
8,1,Environment,Site Outdoor Air Wetbulb Temperature [C] !TimeStep
1125,1,SP-WHOLEBUILDING-AUTOMOTIVE FACILITY SYS-4 FLR-4 SCH-E HPLCMT-SOUTH ZN,Zone Air Temperature [C] !Hourly
1126,7,SP-WHOLEBUILDING-AUTOMOTIVE FACILITY SYS-4 FLR-4 SCH-E HPLCMT-SOUTH ZN,Zone Air Relative Humidity [%] !Daily [Value,Min,Hour,Minute,Max,Hour,Minute]
1165,1,SP-WHOLEBUILDING-CONVENTION CENTRE SYS-3 FLR-3 SCH-C HPLCMT-CORE ZN,Zone Air Temperature [C] !Hourly
1166,7,SP-WHOLEBUILDING-CONVENTION CENTRE SYS-3 FLR-3 SCH-C HPLCMT-CORE ZN,Zone Air Relative Humidity [%] !Daily [Value,Min,Hour,Minute,Max,Hour,Minute]
1205,1,SP-WHOLEBUILDING-COURTHOUSE SYS-3 FLR-3 SCH-A HPLCMT-EAST ZN,Zone Air Temperature [C] !Hourly
1206,7,SP-WHOLEBUILDING-COURTHOUSE SYS-3 FLR-3 SCH-A HPLCMT-EAST ZN,Zone Air Relative Humidity [%] !Daily [Value,Min,Hour,Minute,Max,Hour,Minute]
1245,1,SP-WHOLEBUILDING-DINING - BAR LOUNGE/LEISURE SYS-3 FLR-3 SCH-B HPLCMT-NORTH ZN,Zone Air Temperature [C] !Hourly
1246,7,SP-WHOLEBUILDING-DINING - BAR LOUNGE/LEISURE SYS-3 FLR-3 SCH-B HPLCMT-NORTH ZN,Zone Air Relative Humidity [%] !Daily [Value,Min,Hour,Minute,Max,Hour,Minute]
1285,1,SP-WHOLEBUILDING-DINING - CAFETERIA/FAST FOOD SYS-3 FLR-1 SCH-B HPLCMT-WEST ZN,Zone Air Temperature [C] !Hourly
1286,7,SP-WHOLEBUILDING-DINING - CAFETERIA/FAST FOOD SYS-3 FLR-1 SCH-B HPLCMT-WEST ZN,Zone Air Relative Humidity [%] !Daily [Value,Min,Hour,Minute,Max,Hour,Minute]
1325,1,SP-WHOLEBUILDING-DINING - FAMILY SYS-3 FLR-4 SCH-B HPLCMT-CORE ZN,Zone Air Temperature [C] !Hourly
1326,7,SP-WHOLEBUILDING-DINING - FAMILY SYS-3 FLR-4 SCH-B HPLCMT-CORE ZN,Zone Air Relative Humidity [%] !Daily [Value,Min,Hour,Minute,Max,Hour,Minute]
1365,1,SP-WHOLEBUILDING-DORMITORY SYS-3 FLR-3 SCH-G HPLCMT-SOUTH ZN,Zone Air Temperature [C] !Hourly
1366,7,SP-WHOLEBUILDING-DORMITORY SYS-3 FLR-3 SCH-G HPLCMT-SOUTH ZN,Zone Air Relative Humidity [%] !Daily [Value,Min,Hour,Minute,Max,Hour,Minute]
1405,1,SP-WHOLEBUILDING-EXERCISE CENTRE SYS-6 FLR-2 SCH-B HPLCMT-SOUTH ZN,Zone Air Temperature [C] !Hourly
1406,7,SP-WHOLEBUILDING-EXERCISE CENTRE SYS-6 FLR-2 SCH-B HPLCMT-SOUTH ZN,Zone Air Relative Humidity [%] !Daily [Value,Min,Hour,Minute,Max,Hour,Minute]
1445,1,SP-WHOLEBUILDING-FIRE STATION SYS-4 FLR-1 SCH-F HPLCMT-NORTH ZN,Zone Air Temperature [C] !Hourly
1446,7,SP-WHOLEBUILDING-FIRE STATION SYS-4 FLR-1 SCH-F HPLCMT-NORTH ZN,Zone Air Relative Humidity [%] !Daily [Value,Min,Hour,Minute,Max,Hour,Minute]
1485,1,SP-WHOLEBUILDING-GYMNASIUM SYS-6 FLR-4 SCH-B HPLCMT-WEST ZN,Zone Air Temperature [C] !Hourly
1486,7,SP-WHOLEBUILDING-GYMNASIUM SYS-6 FLR-4 SCH-B HPLCMT-WEST ZN,Zone Air Relative Humidity [%] !Daily [Value,Min,Hour,Minute,Max,Hour,Minute]
1525,1,SP-WHOLEBUILDING-HEALTH CARE CLINIC SYS-6 FLR-2 SCH-A HPLCMT-CORE ZN,Zone Air Temperature [C] !Hourly
1526,7,SP-WHOLEBUILDING-HEALTH CARE CLINIC SYS-6 FLR-2 SCH-A HPLCMT-CORE ZN,Zone Air Relative Humidity [%] !Daily [Value,Min,Hour,Minute,Max,Hour,Minute]
1565,1,SP-WHOLEBUILDING-HOSPITAL SYS-3 FLR-4 SCH-H HPLCMT-EAST ZN,Zone Air Temperature [C] !Hourly
1566,7,SP-WHOLEBUILDING-HOSPITAL SYS-3 FLR-4 SCH-H HPLCMT-EAST ZN,Zone Air Relative Humidity [%] !Daily [Value,Min,Hour,Minute,Max,Hour,Minute]
1605,1,SP-WHOLEBUILDING-HOTEL/MOTEL SYS-1 FLR-4 SCH-F HPLCMT-NORTH ZN,Zone Air Temperature [C] !Hourly
1606,7,SP-WHOLEBUILDING-HOTEL/MOTEL SYS-1 FLR-4 SCH-F HPLCMT-NORTH ZN,Zone Air Relative Humidity [%] !Daily [Value,Min,Hour,Minute,Max,Hour,Minute]
1645,1,SP-WHOLEBUILDING-LIBRARY SYS-2 FLR-1 SCH-C HPLCMT-SOUTH ZN,Zone Air Temperature [C] !Hourly
1646,7,SP-WHOLEBUILDING-LIBRARY SYS-2 FLR-1 SCH-C HPLCMT-SOUTH ZN,Zone Air Relative Humidity [%] !Daily [Value,Min,Hour,Minute,Max,Hour,Minute]
1685,1,SP-WHOLEBUILDING-LONG-TERM CARE - DWELLING UNITS SYS-1 FLR-1 SCH-J HPLCMT-EAST ZN,Zone Air Temperature [C] !Hourly
1686,7,SP-WHOLEBUILDING-LONG-TERM CARE - DWELLING UNITS SYS-1 FLR-1 SCH-J HPLCMT-EAST ZN,Zone Air Relative Humidity [%] !Daily [Value,Min,Hour,Minute,Max,Hour,Minute]
1725,1,SP-WHOLEBUILDING-LONG-TERM CARE - OTHER SYS-1 FLR-2 SCH-B HPLCMT-WEST ZN,Zone Air Temperature [C] !Hourly
1726,7,SP-WHOLEBUILDING-LONG-TERM CARE - OTHER SYS-1 FLR-2 SCH-B HPLCMT-WEST ZN,Zone Air Relative Humidity [%] !Daily [Value,Min,Hour,Minute,Max,Hour,Minute]
1765,1,SP-WHOLEBUILDING-MANUFACTURING FACILITY SYS-3 FLR-3 SCH-A HPLCMT-WEST ZN,Zone Air Temperature [C] !Hourly
1766,7,SP-WHOLEBUILDING-MANUFACTURING FACILITY SYS-3 FLR-3 SCH-A HPLCMT-WEST ZN,Zone Air Relative Humidity [%] !Daily [Value,Min,Hour,Minute,Max,Hour,Minute]
1805,1,SP-WHOLEBUILDING-MOTION PICTURE THEATRE SYS-3 FLR-1 SCH-C HPLCMT-CORE ZN,Zone Air Temperature [C] !Hourly
1806,7,SP-WHOLEBUILDING-MOTION PICTURE THEATRE SYS-3 FLR-1 SCH-C HPLCMT-CORE ZN,Zone Air Relative Humidity [%] !Daily [Value,Min,Hour,Minute,Max,Hour,Minute]
1845,1,SP-WHOLEBUILDING-MULTI-UNIT RESIDENTIAL BUILDING SYS-1 FLR-2 SCH-G HPLCMT-NORTH ZN,Zone Air Temperature [C] !Hourly
1846,7,SP-WHOLEBUILDING-MULTI-UNIT RESIDENTIAL BUILDING SYS-1 FLR-2 SCH-G HPLCMT-NORTH ZN,Zone Air Relative Humidity [%] !Daily [Value,Min,Hour,Minute,Max,Hour,Minute]
1885,1,SP-WHOLEBUILDING-MUSEUM SYS-2 FLR-2 SCH-C HPLCMT-EAST ZN,Zone Air Temperature [C] !Hourly
1886,7,SP-WHOLEBUILDING-MUSEUM SYS-2 FLR-2 SCH-C HPLCMT-EAST ZN,Zone Air Relative Humidity [%] !Daily [Value,Min,Hour,Minute,Max,Hour,Minute]
10,1,Electricity:Facility [J] !TimeStep
891,1,Gas:Facility [J] !TimeStep
End of Data Dictionary
1,FORT MCMURRAY AP ANN CLG .4% CONDNS DB=>MWB,  56.65,-111.22,  -7.00, 369.10
2,1, 7,21, 0, 1, 0.00,10.00,SummerDesignDay
8,14.218136923962174
10,223172000.52677308
891,95110892.60130167
2,1, 7,21, 0, 1,10.00,20.00,SummerDesignDay
8,14.171982153293495
10,220743483.92690734
891,339905786.18948987
2,1, 7,21, 0, 1,20.00,30.00,SummerDesignDay
8,14.125744780286427
10,219901774.6785715
891,127749490.04217044
2,1, 7,21, 0, 1,30.00,40.00,SummerDesignDay
8,14.079436086331978
10,219151787.57280997
891,127834418.32064806
2,1, 7,21, 0, 1,40.00,50.00,SummerDesignDay
8,14.033050387896898
10,218411099.63319514
891,123463066.478701
2,1, 7,21, 0, 1,50.00,60.00,SummerDesignDay
8,13.986581233564835
10,217675279.6793935
891,83231403.38603589
2,1, 7,21, 0, 1, 0.00,60.00,SummerDesignDay
1125,24.88837724509828
1165,23.24005272135571
1205,23.568789997337576
1245,23.99760535033008
1285,23.99737673673373
1325,23.77643116570952
1365,23.99935897620534
1405,23.14639950670841
1445,23.998679813400377
1485,22.002529421895905
1525,20.66226713502021
1565,23.929342221876273
1605,23.888413491182364
1645,22.87613246458392
1685,23.84230669256957
1725,23.848231348061338
1765,23.44108529120153
1805,22.764950083849759
1845,23.902403607140813
1885,23.435721288208133
2,1, 7,21, 0, 2, 0.00,10.00,SummerDesignDay
8,13.95555882260429
10,170878279.51998047
891,111442151.07967188
2,1, 7,21, 0, 2,10.00,20.00,SummerDesignDay
8,13.924507755336454
10,170264497.78331975
891,94591084.37550819
2,1, 7,21, 0, 2,20.00,30.00,SummerDesignDay
8,13.893416042989206
10,170206275.6441919
891,207211253.47653587
2,1, 7,21, 0, 2,30.00,40.00,SummerDesignDay
8,13.862289589689029
10,171265167.9988375
891,109357750.44061989
2,1, 7,21, 0, 2,40.00,50.00,SummerDesignDay
8,13.831134407608739
10,169305943.2698519
891,75158366.69887437
2,1, 7,21, 0, 2,50.00,60.00,SummerDesignDay
8,13.799938415548118
10,169963984.374854
891,119503620.95898727
2,1, 7,21, 0, 2, 0.00,60.00,SummerDesignDay
1125,24.731400218167978
1165,22.920646230219306
1205,23.203573925692266
1245,24.086329133820617
1285,24.06279878569101
1325,23.132754274962335
1365,23.971694383918565
1405,22.616595164040374
1445,23.889619927303217
1485,22.00127919398611
1525,20.583450415793885
1565,23.828112517802336
1605,23.912385156177878
1645,22.557613102572487
1685,23.876742466658404
1725,25.07907912478014
1765,23.03853438557786
1805,22.503397190802429
1845,23.923894807811803
1885,23.094343247427678
2,1, 7,21, 0, 3, 0.00,10.00,SummerDesignDay
8,13.776521671948676
10,138863392.0418451
891,12000.0
2,1, 7,21, 0, 3,10.00,20.00,SummerDesignDay
8,13.753085235778466
10,138802930.2485495
891,48558285.5014492
2,1, 7,21, 0, 3,20.00,30.00,SummerDesignDay
8,13.729636002354969
10,139056801.3949044
891,26778196.411510704
2,1, 7,21, 0, 3,30.00,40.00,SummerDesignDay
8,13.706147375533054
10,139010905.62604467
891,27483221.012516604
2,1, 7,21, 0, 3,40.00,50.00,SummerDesignDay
8,13.682651961920304
10,138814055.0428348
891,51264141.93991576
2,1, 7,21, 0, 3,50.00,60.00,SummerDesignDay
8,13.659136670643687
10,138518633.99887607
891,12000.0
2,1, 7,21, 0, 3, 0.00,60.00,SummerDesignDay
1125,24.583960546963259
1165,22.664239388652545
1205,22.920838250234199
1245,23.664199497335138
1285,23.6419054120291
1325,22.441631258227635
1365,23.802318089981119
1405,22.072423814347489
1445,23.719033511594849
1485,19.963592323884794
1525,20.5060479742146
1565,23.731813646719094
1605,23.945191481239865
1645,22.313850730511406
1685,23.9248585756317
1725,25.12927001688503
1765,22.725091532289885
1805,22.30489689206543
1845,23.955193451100894
1885,22.834838096683684
2,1, 7,21, 0, 4, 0.00,10.00,SummerDesignDay
8,13.63560137410855
10,137738512.4568012
891,54758120.16953516
2,1, 7,21, 0, 4,10.00,20.00,SummerDesignDay
8,13.612040802606578
10,136164383.87158696
891,12000.0
2,1, 7,21, 0, 4,20.00,30.00,SummerDesignDay
8,13.58846620506876
10,136583965.10365037
891,54580935.65817053
2,1, 7,21, 0, 4,30.00,40.00,SummerDesignDay
8,13.56487178447336
10,136324997.38385285
891,46484154.767957929
2,1, 7,21, 0, 4,40.00,50.00,SummerDesignDay
8,13.541257354069103
10,136191129.0635704
891,10189804.119396987
2,1, 7,21, 0, 4,50.00,60.00,SummerDesignDay
8,13.517617463812285
10,136063026.520802
891,54929023.83656312
2,1, 7,21, 0, 4, 0.00,60.00,SummerDesignDay
1125,24.36247454328571
1165,22.37274667095554
1205,22.62475921941144
1245,23.31723905214106
1285,23.274562127060749
1325,22.02131414323142
1365,23.551304834251778
1405,21.710925461081947
1445,23.47028363762477
1485,18.619737432427475
1525,20.40999236672808
1565,23.627280521665229
1605,23.775370821532705
1645,22.05048556657935
1685,23.84060026911729
1725,24.72552198073026
1765,22.38039898747029
1805,22.086926375044276
1845,23.901891236508079
1885,22.569737279255624
2,1, 7,21, 0, 5, 0.00,10.00,SummerDesignDay
8,13.50185415824011
10,135958359.93958903
891,12000.0
2,1, 7,21, 0, 5,10.00,20.00,SummerDesignDay
8,13.486076034032447
10,135973489.9718039
891,54870173.87227194
2,1, 7,21, 0, 5,20.00,30.00,SummerDesignDay
8,13.470289340350983
10,135968970.76910839
891,12000.0
2,1, 7,21, 0, 5,30.00,40.00,SummerDesignDay
8,13.454493322631063
10,135974125.68954698
891,54807112.64117474
2,1, 7,21, 0, 5,40.00,50.00,SummerDesignDay
8,13.438688835118548
10,135957453.27257417
891,12000.0
2,1, 7,21, 0, 5,50.00,60.00,SummerDesignDay
8,13.422888173889437
10,136360858.58800069
891,54739259.01239123
2,1, 7,21, 0, 5, 0.00,60.00,SummerDesignDay
1125,24.159193847047339
1165,22.12148023872469
1205,22.470117374704559
1245,23.224786257442209
1285,23.174967691597418
1325,21.91952105398643
1365,23.33654940862445
1405,21.56509222345386
1445,23.30567224404071
1485,18.354254171249925
1525,20.32178257210727
1565,23.73870449702372
1605,23.742470425441629
1645,21.826871214592655
1685,23.839875870037216
1725,24.59158693034767
1765,22.07450109154317
1805,21.906928999773716
1845,23.901729890983387
1885,22.43567230916183
2,1, 7,21, 0, 6, 0.00,10.00,SummerDesignDay
8,13.438688835118548
10,138261274.37880469
891,28576822.337512714
2,1, 7,21, 0, 6,10.00,20.00,SummerDesignDay
8,13.454493322631063
10,138520470.38144676
891,30287623.86940412
2,1, 7,21, 0, 6,20.00,30.00,SummerDesignDay
8,13.470289340350983
10,138690053.08976225
891,291741325.09384647
2,1, 7,21, 0, 6,30.00,40.00,SummerDesignDay
8,13.486076034032447
10,138604228.01146273
891,42911342.84078378
2,1, 7,21, 0, 6,40.00,50.00,SummerDesignDay
8,13.50185415824011
10,138633055.69567267
891,15337553.659346333
2,1, 7,21, 0, 6,50.00,60.00,SummerDesignDay
8,13.517617463812285
10,138694987.7428328
891,55675177.66797298
2,1, 7,21, 0, 6, 0.00,60.00,SummerDesignDay
1125,24.193566832863828
1165,21.97795359729747
1205,22.727689144579313
1245,23.1928671226332
1285,23.09454310417441
1325,21.98616462081257
1365,23.22294840587197
1405,21.455633352465609
1445,23.271883283383816
1485,18.39106942082133
1525,20.24046269879582
1565,23.99785276482693
1605,23.88899808353084
1645,21.707655968456746
1685,23.839517498828696
1725,24.500792202827488
1765,21.911253757225066
1805,21.80354150301984
1845,23.902218039837974
1885,22.69411812381975
2,1, 7,21, 0, 7, 0.00,10.00,SummerDesignDay
8,13.572736920571789
10,145328792.54591535
891,58672551.571673508
2,1, 7,21, 0, 7,10.00,20.00,SummerDesignDay
8,13.627748229152554
10,147003594.87327365
891,59025373.1939988
2,1, 7,21, 0, 7,20.00,30.00,SummerDesignDay
8,13.682651961920304
10,148203354.52113609
891,59036194.74909941
2,1, 7,21, 0, 7,30.00,40.00,SummerDesignDay
8,13.737448093244995
10,149427929.57539443
891,59049143.31225876
2,1, 7,21, 0, 7,40.00,50.00,SummerDesignDay
8,13.792137011831216
10,150686297.08599255
891,59062323.6325342
2,1, 7,21, 0, 7,50.00,60.00,SummerDesignDay
8,13.846719282840333
10,151961206.46426354
891,59075635.39562359
2,1, 7,21, 0, 7, 0.00,60.00,SummerDesignDay
1125,24.48366834093805
1165,22.04288275832703
1205,23.227048571969918
1245,23.095022325135316
1285,23.020788978983675
1325,22.187874524847705
1365,23.406393055185089
1405,21.3641799221889
1445,23.469605319843287
1485,18.613695950701837
1525,20.163224825200385
1565,23.998628777546189
1605,23.88983400262991
1645,21.80100378131908
1685,23.83945362709528
1725,24.42399799625703
1765,22.009167502586196
1805,21.855345722644889
1845,23.90174643180124
1885,23.1741168603759
2,1, 7,21, 0, 8, 0.00,10.00,SummerDesignDay
8,13.978831900527043
10,180590067.2160873
891,123988509.17392491
2,1, 7,21, 0, 8,10.00,20.00,SummerDesignDay
8,14.110321014287419
10,185747772.66859804
891,120944064.40510892
2,1, 7,21, 0, 8,20.00,30.00,SummerDesignDay
8,14.241191509616986
10,189229349.86793167
891,73586646.36086963
2,1, 7,21, 0, 8,30.00,40.00,SummerDesignDay
8,14.371447531304272
10,196918368.90061487
891,120479885.40569054
2,1, 7,21, 0, 8,40.00,50.00,SummerDesignDay
8,14.501093766564925
10,200302760.51241256
891,125862715.0943183
2,1, 7,21, 0, 8,50.00,60.00,SummerDesignDay
8,14.630134792273804
10,205478957.25013007
891,118267843.69348367
2,1, 7,21, 0, 8, 0.00,60.00,SummerDesignDay
1125,23.05046966819333
1165,22.415737812769334
1205,23.90099160356929
1245,23.240435909879215
1285,23.080632716386267
1325,22.586248072107066
1365,23.898153160367426
1405,21.66035599986468
1445,23.835569097003899
1485,19.075691677984069
1525,20.446592665016025
1565,23.998417185641796
1605,23.919760588966399
1645,22.210533855096526
1685,23.8826329870148
1725,24.37589924292705
1765,22.71176737344456
1805,22.130387518302098
1845,23.927317049841247
1885,23.626996122063344
2,1, 7,21, 0, 9, 0.00,10.00,SummerDesignDay
8,14.773641492809972
10,283402075.94767317
891,225467010.61113797
2,1, 7,21, 0, 9,10.00,20.00,SummerDesignDay
8,14.91640948124148
10,287066485.7082823
891,110482770.25846593
2,1, 7,21, 0, 9,20.00,30.00,SummerDesignDay
8,15.05843890714102
10,294660092.2344302
891,127036541.34728283
2,1, 7,21, 0, 9,30.00,40.00,SummerDesignDay
8,15.199735893563798
10,303687302.4906573
891,132374308.427807
2,1, 7,21, 0, 9,40.00,50.00,SummerDesignDay
8,15.340306256439395
10,310055195.62861546
891,132392844.5468779
2,1, 7,21, 0, 9,50.00,60.00,SummerDesignDay
8,15.48015101768072
10,317606057.7642616
891,132412609.46265553
2,1, 7,21, 0, 9, 0.00,60.00,SummerDesignDay
1125,23.842089200253886
1165,23.65749240534878
1205,23.99900981633552
1245,23.87263406088361
1285,23.642378865153345
1325,23.69249883676949
1365,23.998538546058329
1405,21.354004015951849
1445,23.999057623710646
1485,20.099861698972913
1525,21.786175675132247
1565,23.998376286896464
1605,23.915748648937496
1645,23.541607384685503
1685,23.875869686590478
1725,23.854481276436578
1765,23.930345145362197
1805,23.245478646178275
1845,23.92267297175304
1885,23.879128988419159
2,1, 7,21, 0,10, 0.00,10.00,SummerDesignDay
8,15.60467292907716
10,388947194.6002586
891,282766721.1753379
2,1, 7,21, 0,10,10.00,20.00,SummerDesignDay
8,15.72862731650033
10,401475109.68535938
891,177499393.53538553
2,1, 7,21, 0,10,20.00,30.00,SummerDesignDay
8,15.852017409284228
10,408289443.916393
891,205104011.87831504
2,1, 7,21, 0,10,30.00,40.00,SummerDesignDay
8,15.974848118364367
10,414915234.9199749
891,200670852.07504595
2,1, 7,21, 0,10,40.00,50.00,SummerDesignDay
8,16.097123145563505
10,422542512.8229489
891,167845906.41639597
2,1, 7,21, 0,10,50.00,60.00,SummerDesignDay
8,16.218846351168599
10,427210725.07129797
891,168029133.98718325
2,1, 7,21, 0,10, 0.00,60.00,SummerDesignDay
1125,23.999371719268699
1165,23.999737630195584
1205,23.998820422891599
1245,23.999530926898399
1285,23.998679450876698
1325,23.99934565870178
1365,23.99883344913917
1405,22.075604824142365
1445,23.99906420460034
1485,21.978391554231334
1525,22.014393684345256
1565,23.998482738594139
1605,23.916061405501414
1645,24.05413221583292
1685,23.872431219235783
1725,23.875029454839905
1765,23.99954636310116
1805,23.992822293395155
1845,23.921328059234257
1885,24.070310185538493
2,1, 7,21, 0,11, 0.00,10.00,SummerDesignDay
8,16.325793027093189
10,454373540.0223764
891,190012942.8861853
2,1, 7,21, 0,11,10.00,20.00,SummerDesignDay
8,16.432322158488288
10,460514041.0353452
891,202967820.50267834
2,1, 7,21, 0,11,20.00,30.00,SummerDesignDay
8,16.538424180249178
10,464279029.6731982
891,184993140.86331568
2,1, 7,21, 0,11,30.00,40.00,SummerDesignDay
8,16.644108396469087
10,468123249.4278456
891,166413250.0410199
2,1, 7,21, 0,11,40.00,50.00,SummerDesignDay
8,16.749376736593655
10,471896807.73265156
891,166603310.4355829
2,1, 7,21, 0,11,50.00,60.00,SummerDesignDay
8,16.854232613237156
10,475583155.0509054
891,201319287.46220035
2,1, 7,21, 0,11, 0.00,60.00,SummerDesignDay
1125,23.99869827370394
1165,23.99940401386436
1205,23.998438037014215
1245,23.99872952055693
1285,23.999109260484969
1325,23.998550881199795
1365,23.99852671517755
1405,22.581174065737686
1445,23.999056086698528
1485,22.593680091275574
1525,22.000453367335824
1565,23.998074402122936
1605,23.895442412308357
1645,24.145419493058854
1685,23.84187210535727
1725,23.845700108134307
1765,23.999391898950806
1805,23.99946896521814
1845,23.901133337012479
1885,24.193364179293956
2,1, 7,21, 0,12, 0.00,10.00,SummerDesignDay
8,16.92390823520069
10,494784691.7659773
891,151006618.15300093
2,1, 7,21, 0,12,10.00,20.00,SummerDesignDay
8,16.99340178950456
10,496106792.5755267
891,143447781.54062978
2,1, 7,21, 0,12,20.00,30.00,SummerDesignDay
8,17.06272006743463
10,498537169.993444
891,143451079.79200543
2,1, 7,21, 0,12,30.00,40.00,SummerDesignDay
8,17.131853229172639
10,501877902.12423279
891,143457436.03505958
2,1, 7,21, 0,12,40.00,50.00,SummerDesignDay
8,17.200807172194087
10,504354988.9945163
891,143463716.23380158
2,1, 7,21, 0,12,50.00,60.00,SummerDesignDay
8,17.269582116758607
10,506736982.90567508
891,143469952.81193383
2,1, 7,21, 0,12, 0.00,60.00,SummerDesignDay
1125,23.99849112001412
1165,23.99913573116405
1205,23.998310956253847
1245,23.99828570857026
1285,23.998468170215948
1325,23.998024572392806
1365,23.9988229278146
1405,23.307572339653406
1445,23.999315007774585
1485,23.594353122265799
1525,22.013554872664174
1565,23.99834275274235
1605,23.896687648231354
1645,24.167025501298317
1685,23.84229083274656
1725,23.846046105081198
1765,23.999300936349689
1805,23.99924625831873
1845,23.90156073959199
1885,24.225766697417087
2,1, 7,21, 0,13, 0.00,10.00,SummerDesignDay
8,17.32447360221357
10,510577398.9755893
891,159853331.88509456
2,1, 7,21, 0,13,10.00,20.00,SummerDesignDay
8,17.379251291230806
10,514355230.5234363
891,150750920.4687068
2,1, 7,21, 0,13,20.00,30.00,SummerDesignDay
8,17.433921312061729
10,516770222.63168999
891,150824728.62878878
2,1, 7,21, 0,13,30.00,40.00,SummerDesignDay
8,17.488473222557489
10,518170925.0038154
891,150902796.06909875
2,1, 7,21, 0,13,40.00,50.00,SummerDesignDay
8,17.542913447755134
10,520235461.45191499
891,152246476.98268757
2,1, 7,21, 0,13,50.00,60.00,SummerDesignDay
8,17.59724609886134
10,522077051.36392477
891,174628636.70726798
2,1, 7,21, 0,13, 0.00,60.00,SummerDesignDay
1125,23.99850763474616
1165,23.998617868254603
1205,23.998505013619874
1245,24.010825592566346
1285,23.99770116765761
1325,23.997375635507554
1365,23.999005517849584
1405,23.463686120854349
1445,23.99946975461442
1485,23.995505178257575
1525,22.260884745553115
1565,23.99832528550832
1605,23.89729388245574
1645,24.18521861180317
1685,23.8423929894175
1725,23.846395098741409
1765,23.999348326915578
1805,23.998550786295469
1845,23.901945002669028
1885,24.253481325530659
2,1, 7,21, 0,14, 0.00,10.00,SummerDesignDay
8,17.6311450462694
10,522660876.2146422
891,193637700.50398923
2,1, 7,21, 0,14,10.00,20.00,SummerDesignDay
8,17.665000449016245
10,524379728.89898559
891,176631323.70862607
2,1, 7,21, 0,14,20.00,30.00,SummerDesignDay
8,17.698812743128934
10,525714374.0842014
891,161585810.79213349
2,1, 7,21, 0,14,30.00,40.00,SummerDesignDay
8,17.732582050940107
10,527115283.46122857
891,161746500.53680606
2,1, 7,21, 0,14,40.00,50.00,SummerDesignDay
8,17.766307345121004
10,528999360.20418199
891,186599358.50456656
2,1, 7,21, 0,14,50.00,60.00,SummerDesignDay
8,17.79999023167558
10,530536439.20038709
891,195588015.49703608
2,1, 7,21, 0,14, 0.00,60.00,SummerDesignDay
1125,23.998365739845995
1165,23.998159150201646
1205,23.998620360075149
1245,24.175945286131357
1285,23.997304033006313
1325,23.996955734773086
1365,23.999008540382417
1405,23.459559729361904
1445,23.999482895611874
1485,23.998272490299553
1525,22.427781017313973
1565,23.99826381402367
1605,23.89752643176998
1645,24.205099289624714
1685,23.842430438895638
1725,23.84666387931581
1765,23.99936952851823
1805,23.99797451813681
1845,23.90220017583981
1885,24.297563322441446
2,1, 7,21, 0,15, 0.00,10.00,SummerDesignDay
8,17.79999023167558
10,529818757.05343177
891,179159096.4781317
2,1, 7,21, 0,15,10.00,20.00,SummerDesignDay
8,17.79999023167558
10,530646212.58906486
891,162320776.3378731
2,1, 7,21, 0,15,20.00,30.00,SummerDesignDay
8,17.79999023167558
10,532366192.38633456
891,162485419.66224648
2,1, 7,21, 0,15,30.00,40.00,SummerDesignDay
8,17.79999023167558
10,533150004.4920845
891,187782797.40447886
2,1, 7,21, 0,15,40.00,50.00,SummerDesignDay
8,17.79999023167558
10,533790884.12409916
891,196784553.98221717
2,1, 7,21, 0,15,50.00,60.00,SummerDesignDay
8,17.79999023167558
10,533989073.1172844
891,178666506.01202259
2,1, 7,21, 0,15, 0.00,60.00,SummerDesignDay
1125,23.99847668717244
1165,23.99790483765997
1205,23.998314669513165
1245,24.073351371173734
1285,23.997565420798194
1325,23.997322482857386
1365,23.99896802811425
1405,23.475813716189124
1445,23.999499164774535
1485,23.998419742585715
1525,22.49172869551356
1565,23.998301402659906
1605,23.897299532888867
1645,24.404610398890595
1685,23.842450056993476
1725,23.848430404941099
1765,23.999147266123658
1805,23.99780388375787
1845,23.902293971883855
1885,24.542970818790566
2,1, 7,21, 0,16, 0.00,10.00,SummerDesignDay
8,17.759562446305357
10,530622910.94646647
891,152542869.4180631
2,1, 7,21, 0,16,10.00,20.00,SummerDesignDay
8,17.71907809634183
10,527980853.07090249
891,151631231.34025625
2,1, 7,21, 0,16,20.00,30.00,SummerDesignDay
8,17.67853788661001
10,528257510.06559178
891,151716593.1190754
2,1, 7,21, 0,16,30.00,40.00,SummerDesignDay
8,17.63791796367351
10,526400423.54614529
891,167145150.10528339
2,1, 7,21, 0,16,40.00,50.00,SummerDesignDay
8,17.59724609886134
10,523506203.08199468
891,176341631.61138705
2,1, 7,21, 0,16,50.00,60.00,SummerDesignDay
8,17.55650676726033
10,522360929.6245534
891,176216740.02605809
2,1, 7,21, 0,16, 0.00,60.00,SummerDesignDay
1125,23.99862504196679
1165,23.997572298071437
1205,23.998056720479835
1245,23.997957400031429
1285,23.998239660274547
1325,23.99819219292351
1365,23.998692229759447
1405,23.38847689460522
1445,23.999573701143459
1485,23.99889122614262
1525,22.373028284833379
1565,23.99833849236793
1605,23.896937463109695
1645,24.494803690521058
1685,23.842508168474138
1725,23.85053478155935
1765,23.998850745933358
1805,23.997716202934276
1845,23.90208155220647
1885,24.564523127703639
2,1, 7,21, 0,17, 0.00,10.00,SummerDesignDay
8,17.50209486331892
10,520324238.0942581
891,146271721.9483702
2,1, 7,21, 0,17,10.00,20.00,SummerDesignDay
8,17.447570789624618
10,517133693.20574375
891,140391867.14483408
2,1, 7,21, 0,17,20.00,30.00,SummerDesignDay
8,17.392929544208135
10,514629344.87245687
891,140399787.9323987
2,1, 7,21, 0,17,30.00,40.00,SummerDesignDay
8,17.33818013976614
10,511928851.5705409
891,140405567.44005264
2,1, 7,21, 0,17,40.00,50.00,SummerDesignDay
8,17.283317298559309
10,509300637.93718037
891,140411205.05823977
2,1, 7,21, 0,17,50.00,60.00,SummerDesignDay
8,17.22833552437677
10,506629191.6969789
891,140416804.71813695
2,1, 7,21, 0,17, 0.00,60.00,SummerDesignDay
1125,23.99877201558608
1165,23.997274051155615
1205,23.99801259206143
1245,23.998468612486517
1285,23.998609163383276
1325,23.998851156012859
1365,23.998201783763233
1405,23.242488940030485
1445,23.99961420344889
1485,23.999274060300225
1525,22.390306892921264
1565,23.998361380413088
1605,23.896153935484298
1645,24.93217244331318
1685,23.842566134088668
1725,23.852219135406739
1765,23.99870897226337
1805,23.9974805696157
1845,23.90176291802635
1885,25.07390694133764
2,1, 7,21, 0,18, 0.00,10.00,SummerDesignDay
8,17.159453019160176
10,496690045.0639059
891,139723214.16106377
2,1, 7,21, 0,18,10.00,20.00,SummerDesignDay
8,17.090391773337136
10,493794712.50301608
891,139650008.78814066
2,1, 7,21, 0,18,20.00,30.00,SummerDesignDay
8,17.021151077964786
10,490556671.33656957
891,139652825.7728093
2,1, 7,21, 0,18,30.00,40.00,SummerDesignDay
8,16.951729380464653
10,487310659.6742507
891,139655468.15770436
2,1, 7,21, 0,18,40.00,50.00,SummerDesignDay
8,16.882126503829249
10,483268943.80618098
891,139658090.57761989
2,1, 7,21, 0,18,50.00,60.00,SummerDesignDay
8,16.812341807494034
10,480072686.92458328
891,139660698.99697174
2,1, 7,21, 0,18, 0.00,60.00,SummerDesignDay
1125,23.999061746104798
1165,23.99753434293449
1205,23.998334143192407
1245,23.998551554607486
1285,23.99866588017366
1325,23.999102966437069
1365,23.997726133359725
1405,23.270351912927866
1445,23.999557344201305
1485,23.99932465846905
1525,22.300822755314028
1565,23.99855158622917
1605,23.895004814281859
1645,24.671069500151025
1685,23.842632471907537
1725,23.85318602228011
1765,23.99883694045988
1805,23.997604089878334
1845,23.90144049614025
1885,24.80787166868714
2,1, 7,21, 0,19, 0.00,10.00,SummerDesignDay
8,16.707321072823203
10,450374936.3826008
891,141159663.55502958
2,1, 7,21, 0,19,10.00,20.00,SummerDesignDay
8,16.601881826644556
10,446496599.67009809
891,141335435.65959157
2,1, 7,21, 0,19,20.00,30.00,SummerDesignDay
8,16.496030555252849
10,442586955.5398613
891,141344467.5000078
2,1, 7,21, 0,19,30.00,40.00,SummerDesignDay
8,16.389760181474104
10,435375316.55411168
891,141353619.16670249
2,1, 7,21, 0,19,40.00,50.00,SummerDesignDay
8,16.283067654262039
10,429160453.85014078
891,141362704.3272302
2,1, 7,21, 0,19,50.00,60.00,SummerDesignDay
8,16.17595057957811
10,424544966.75034138
891,141371716.82249985
2,1, 7,21, 0,19, 0.00,60.00,SummerDesignDay
1125,23.999689773281998
1165,23.998067586260363
1205,23.999043924392784
1245,23.997892454881027
1285,23.998157208598955
1325,23.99888470126598
1365,23.99673749599467
1405,23.481317149157577
1445,23.99952211363653
1485,23.980177765732248
1525,22.015669275572738
1565,23.99872959419059
1605,23.893754657152529
1645,24.19239217153272
1685,23.842669012441779
1725,23.853211012922715
1765,23.99931286741101
1805,23.99816380371915
1845,23.900810712473175
1885,24.270488590673087
2,1, 7,21, 0,20, 0.00,10.00,SummerDesignDay
8,16.097123145563505
10,388584659.3172326
891,140717103.48863469
2,1, 7,21, 0,20,10.00,20.00,SummerDesignDay
8,16.018070242471564
10,385983007.9296837
891,140507753.45625199
2,1, 7,21, 0,20,20.00,30.00,SummerDesignDay
8,15.938779752340516
10,383145319.6174527
891,140237658.29241918
2,1, 7,21, 0,20,30.00,40.00,SummerDesignDay
8,15.85926152575189
10,381505570.9993016
891,140318953.00514008
2,1, 7,21, 0,20,40.00,50.00,SummerDesignDay
8,15.779503718563929
10,376597991.8178336
891,140323397.28463809
2,1, 7,21, 0,20,50.00,60.00,SummerDesignDay
8,15.699515709672767
10,374114128.36857548
891,140327683.36225725
2,1, 7,21, 0,20, 0.00,60.00,SummerDesignDay
1125,25.448866334685538
1165,23.99926993221814
1205,23.99969211387449
1245,23.997621517371383
1285,23.99751825139025
1325,23.998780312334817
1365,23.99741057176925
1405,23.597142815022676
1445,23.999398456724703
1485,23.691121658277166
1525,21.940405952026635
1565,23.999175828283954
1605,23.9223424814783
1645,24.02813547649386
1685,23.88651536235751
1725,23.892701250781746
1765,23.999774337038699
1805,23.999352484772488
1845,23.93188218145072
1885,24.040542059703964
2,1, 7,21, 0,21, 0.00,10.00,SummerDesignDay
8,15.63389147320404
10,365543356.2423879
891,187663953.31257103
2,1, 7,21, 0,21,10.00,20.00,SummerDesignDay
8,15.56810827419793
10,363689920.2412793
891,202633603.13403929
2,1, 7,21, 0,21,20.00,30.00,SummerDesignDay
8,15.502170882753524
10,360239126.1371854
891,183049240.89678
2,1, 7,21, 0,21,30.00,40.00,SummerDesignDay
8,15.436068032613852
10,356709082.5563513
891,166193039.16630144