Program Version,EnergyPlus, Version 8.9.0-eba93e8e1b, YMD=2019.03.26 18:13
1,5,Environment Title[],Latitude[deg],Longitude[deg],Time Zone[],Elevation[m]
2,8,Day of Simulation[],Month[],Day of Month[],DST Indicator[1=yes 0=no],Hour[],StartMinute[],EndMinute[],DayType
3,5,Cumulative Day of Simulation[],Month[],Day of Month[],DST Indicator[1=yes 0=no],DayType  ! When Daily Report Variables Requested
4,2,Cumulative Days of Simulation[],Month[]  ! When Monthly Report Variables Requested
5,1,Cumulative Days of Simulation[] ! When Run Period Report Variables Requested
6,1,Calendar Year of Simulation[] ! When Annual Report Variables Requested
7,9,Environment,Site Outdoor Air Drybulb Temperature [C] !Monthly [Value,Min,Day,Hour,Minute,Max,Day,Hour,Minute]
8,1,Environment,Site Outdoor Air Wetbulb Temperature [C] !TimeStep
1125,1,SP-WHOLEBUILDING-AUTOMOTIVE FACILITY SYS-4 FLR-4 SCH-E HPLCMT-EAST ZN,Zone Air Temperature [C] !Hourly
1126,7,SP-WHOLEBUILDING-AUTOMOTIVE FACILITY SYS-4 FLR-4 SCH-E HPLCMT-EAST ZN,Zone Air Relative Humidity [%] !Daily [Value,Min,Hour,Minute,Max,Hour,Minute]
1165,1,SP-WHOLEBUILDING-CONVENTION CENTRE SYS-3 FLR-4 SCH-C HPLCMT-NORTH ZN,Zone Air Temperature [C] !Hourly
1166,7,SP-WHOLEBUILDING-CONVENTION CENTRE SYS-3 FLR-4 SCH-C HPLCMT-NORTH ZN,Zone Air Relative Humidity [%] !Daily [Value,Min,Hour,Minute,Max,Hour,Minute]
1205,1,SP-WHOLEBUILDING-COURTHOUSE SYS-3 FLR-4 SCH-A HPLCMT-SOUTH ZN,Zone Air Temperature [C] !Hourly
1206,7,SP-WHOLEBUILDING-COURTHOUSE SYS-3 FLR-4 SCH-A HPLCMT-SOUTH ZN,Zone Air Relative Humidity [%] !Daily [Value,Min,Hour,Minute,Max,Hour,Minute]
1245,1,SP-WHOLEBUILDING-DINING - BAR LOUNGE/LEISURE SYS-3 FLR-4 SCH-B HPLCMT-WEST ZN,Zone Air Temperature [C] !Hourly
1246,7,SP-WHOLEBUILDING-DINING - BAR LOUNGE/LEISURE SYS-3 FLR-4 SCH-B HPLCMT-WEST ZN,Zone Air Relative Humidity [%] !Daily [Value,Min,Hour,Minute,Max,Hour,Minute]
1285,1,SP-WHOLEBUILDING-DINING - CAFETERIA/FAST FOOD SYS-3 FLR-3 SCH-B HPLCMT-CORE ZN,Zone Air Temperature [C] !Hourly
1286,7,SP-WHOLEBUILDING-DINING - CAFETERIA/FAST FOOD SYS-3 FLR-3 SCH-B HPLCMT-CORE ZN,Zone Air Relative Humidity [%] !Daily [Value,Min,Hour,Minute,Max,Hour,Minute]
1325,1,SP-WHOLEBUILDING-DINING - FAMILY SYS-3 FLR-4 SCH-B HPLCMT-CORE ZN,Zone Air Temperature [C] !Hourly
1326,7,SP-WHOLEBUILDING-DINING - FAMILY SYS-3 FLR-4 SCH-B HPLCMT-CORE ZN,Zone Air Relative Humidity [%] !Daily [Value,Min,Hour,Minute,Max,Hour,Minute]
1365,1,SP-WHOLEBUILDING-DORMITORY SYS-3 FLR-3 SCH-G HPLCMT-SOUTH ZN,Zone Air Temperature [C] !Hourly
1366,7,SP-WHOLEBUILDING-DORMITORY SYS-3 FLR-3 SCH-G HPLCMT-SOUTH ZN,Zone Air Relative Humidity [%] !Daily [Value,Min,Hour,Minute,Max,Hour,Minute]
1405,1,SP-WHOLEBUILDING-EXERCISE CENTRE SYS-6 FLR-3 SCH-B HPLCMT-EAST ZN,Zone Air Temperature [C] !Hourly
1406,7,SP-WHOLEBUILDING-EXERCISE CENTRE SYS-6 FLR-3 SCH-B HPLCMT-EAST ZN,Zone Air Relative Humidity [%] !Daily [Value,Min,Hour,Minute,Max,Hour,Minute]
1445,1,SP-WHOLEBUILDING-FIRE STATION SYS-4 FLR-3 SCH-F HPLCMT-NORTH ZN,Zone Air Temperature [C] !Hourly
1446,7,SP-WHOLEBUILDING-FIRE STATION SYS-4 FLR-3 SCH-F HPLCMT-NORTH ZN,Zone Air Relative Humidity [%] !Daily [Value,Min,Hour,Minute,Max,Hour,Minute]
1485,1,SP-WHOLEBUILDING-GYMNASIUM SYS-6 FLR-3 SCH-B HPLCMT-WEST ZN,Zone Air Temperature [C] !Hourly
1486,7,SP-WHOLEBUILDING-GYMNASIUM SYS-6 FLR-3 SCH-B HPLCMT-WEST ZN,Zone Air Relative Humidity [%] !Daily [Value,Min,Hour,Minute,Max,Hour,Minute]
1525,1,SP-WHOLEBUILDING-HEALTH CARE CLINIC SYS-6 FLR-2 SCH-A HPLCMT-EAST ZN,Zone Air Temperature [C] !Hourly
1526,7,SP-WHOLEBUILDING-HEALTH CARE CLINIC SYS-6 FLR-2 SCH-A HPLCMT-EAST ZN,Zone Air Relative Humidity [%] !Daily [Value,Min,Hour,Minute,Max,Hour,Minute]
1565,1,SP-WHOLEBUILDING-HOSPITAL SYS-3 FLR-1 SCH-H HPLCMT-EAST ZN,Zone Air Temperature [C] !Hourly
1566,7,SP-WHOLEBUILDING-HOSPITAL SYS-3 FLR-1 SCH-H HPLCMT-EAST ZN,Zone Air Relative Humidity [%] !Daily [Value,Min,Hour,Minute,Max,Hour,Minute]
1605,1,SP-WHOLEBUILDING-HOTEL/MOTEL SYS-1 FLR-2 SCH-F HPLCMT-CORE ZN,Zone Air Temperature [C] !Hourly
1606,7,SP-WHOLEBUILDING-HOTEL/MOTEL SYS-1 FLR-2 SCH-F HPLCMT-CORE ZN,Zone Air Relative Humidity [%] !Daily [Value,Min,Hour,Minute,Max,Hour,Minute]
1645,1,SP-WHOLEBUILDING-LIBRARY SYS-2 FLR-1 SCH-C HPLCMT-NORTH ZN,Zone Air Temperature [C] !Hourly
1646,7,SP-WHOLEBUILDING-LIBRARY SYS-2 FLR-1 SCH-C HPLCMT-NORTH ZN,Zone Air Relative Humidity [%] !Daily [Value,Min,Hour,Minute,Max,Hour,Minute]
1685,1,SP-WHOLEBUILDING-LONG-TERM CARE - DWELLING UNITS SYS-1 FLR-1 SCH-J HPLCMT-SOUTH ZN,Zone Air Temperature [C] !Hourly
1686,7,SP-WHOLEBUILDING-LONG-TERM CARE - DWELLING UNITS SYS-1 FLR-1 SCH-J HPLCMT-SOUTH ZN,Zone Air Relative Humidity [%] !Daily [Value,Min,Hour,Minute,Max,Hour,Minute]
1725,1,SP-WHOLEBUILDING-LONG-TERM CARE - OTHER SYS-1 FLR-1 SCH-B HPLCMT-CORE ZN,Zone Air Temperature [C] !Hourly
1726,7,SP-WHOLEBUILDING-LONG-TERM CARE - OTHER SYS-1 FLR-1 SCH-B HPLCMT-CORE ZN,Zone Air Relative Humidity [%] !Daily [Value,Min,Hour,Minute,Max,Hour,Minute]
1765,1,SP-WHOLEBUILDING-MANUFACTURING FACILITY SYS-3 FLR-2 SCH-A HPLCMT-WEST ZN,Zone Air Temperature [C] !Hourly
1766,7,SP-WHOLEBUILDING-MANUFACTURING FACILITY SYS-3 FLR-2 SCH-A HPLCMT-WEST ZN,Zone Air Relative Humidity [%] !Daily [Value,Min,Hour,Minute,Max,Hour,Minute]
1805,1,SP-WHOLEBUILDING-MOTION PICTURE THEATRE SYS-3 FLR-2 SCH-C HPLCMT-NORTH ZN,Zone Air Temperature [C] !Hourly
1806,7,SP-WHOLEBUILDING-MOTION PICTURE THEATRE SYS-3 FLR-2 SCH-C HPLCMT-NORTH ZN,Zone Air Relative Humidity [%] !Daily [Value,Min,Hour,Minute,Max,Hour,Minute]
1845,1,SP-WHOLEBUILDING-MULTI-UNIT RESIDENTIAL BUILDING SYS-1 FLR-1 SCH-G HPLCMT-WEST ZN,Zone Air Temperature [C] !Hourly
1846,7,SP-WHOLEBUILDING-MULTI-UNIT RESIDENTIAL BUILDING SYS-1 FLR-1 SCH-G HPLCMT-WEST ZN,Zone Air Relative Humidity [%] !Daily [Value,Min,Hour,Minute,Max,Hour,Minute]
1885,1,SP-WHOLEBUILDING-MUSEUM SYS-2 FLR-2 SCH-C HPLCMT-SOUTH ZN,Zone Air Temperature [C] !Hourly
1886,7,SP-WHOLEBUILDING-MUSEUM SYS-2 FLR-2 SCH-C HPLCMT-SOUTH ZN,Zone Air Relative Humidity [%] !Daily [Value,Min,Hour,Minute,Max,Hour,Minute]
10,1,Electricity:Facility [J] !TimeStep
891,1,Gas:Facility [J] !TimeStep
End of Data Dictionary
1,FORT MCMURRAY AP ANN CLG .4% CONDNS DB=>MWB,  56.65,-111.22,  -7.00, 369.10
2,1, 7,21, 0, 1, 0.00,10.00,SummerDesignDay
8,14.218136923962174
10,171820118.4296316
891,106494605.37628295
2,1, 7,21, 0, 1,10.00,20.00,SummerDesignDay
8,14.171982153293495
10,168647560.94383715
891,95105530.27304363
2,1, 7,21, 0, 1,20.00,30.00,SummerDesignDay
8,14.125744780286427
10,167761980.9000258
891,133729800.7476242
2,1, 7,21, 0, 1,30.00,40.00,SummerDesignDay
8,14.079436086331978
10,166872318.57642216
891,134208231.14413516
2,1, 7,21, 0, 1,40.00,50.00,SummerDesignDay
8,14.033050387896898
10,165977994.75230015
891,134709930.1829129
2,1, 7,21, 0, 1,50.00,60.00,SummerDesignDay
8,13.986581233564835
10,165090496.66260413
891,135211652.15055115
2,1, 7,21, 0, 1, 0.00,60.00,SummerDesignDay
1125,23.007616284476375
1165,23.19176687316522
1205,24.35327517146871
1245,23.999085145694435
1285,23.997304200521659
1325,23.999080395488734
1365,23.999144547477966
1405,23.998401090508567
1445,23.99833426095199
1485,23.998400157663594
1525,23.772023155517386
1565,23.99868051961643
1605,23.88472917210034
1645,23.08556584634785
1685,23.84264170151454
1725,23.839209010845079
1765,24.557550697957269
1805,24.17787427245662
1845,23.902004071260135
1885,23.67361289975405
2,1, 7,21, 0, 2, 0.00,10.00,SummerDesignDay
8,13.95555882260429
10,114741592.26256816
891,64880160.82840168
2,1, 7,21, 0, 2,10.00,20.00,SummerDesignDay
8,13.924507755336454
10,113815353.2952234
891,126101855.99598249
2,1, 7,21, 0, 2,20.00,30.00,SummerDesignDay
8,13.893416042989206
10,113479877.23550485
891,65115231.051560629
2,1, 7,21, 0, 2,30.00,40.00,SummerDesignDay
8,13.862289589689029
10,113149381.16970651
891,126629112.44791076
2,1, 7,21, 0, 2,40.00,50.00,SummerDesignDay
8,13.831134407608739
10,112732754.15592805
891,93564491.53821878
2,1, 7,21, 0, 2,50.00,60.00,SummerDesignDay
8,13.799938415548118
10,112538892.0979303
891,99411428.67938918
2,1, 7,21, 0, 2, 0.00,60.00,SummerDesignDay
1125,22.585607309537637
1165,22.817851079922847
1205,23.995366513169157
1245,23.911519548482479
1285,24.069322547226166
1325,23.589167979737224
1365,23.999418639955868
1405,24.28548724753742
1445,23.998815623134218
1485,24.590434092924853
1525,23.686528389209547
1565,24.00172264648381
1605,23.88488598909119
1645,22.818179593711304
1685,23.84218099384024
1725,24.439879577266166
1765,24.299292508908676
1805,23.98301557478612
1845,23.901695099329275
1885,23.407414781092155
2,1, 7,21, 0, 3, 0.00,10.00,SummerDesignDay
8,13.776521671948676
10,80172242.1967784
891,57477571.3607766
2,1, 7,21, 0, 3,10.00,20.00,SummerDesignDay
8,13.753085235778466
10,79776231.98953219
891,6575345.438253923
2,1, 7,21, 0, 3,20.00,30.00,SummerDesignDay
8,13.729636002354969
10,79593574.63145267
891,58881669.42820202
2,1, 7,21, 0, 3,30.00,40.00,SummerDesignDay
8,13.706147375533054
10,79411589.76555936
891,46853770.985087338
2,1, 7,21, 0, 3,40.00,50.00,SummerDesignDay
8,13.682651961920304
10,79214830.81636255
891,18494724.677365029
2,1, 7,21, 0, 3,50.00,60.00,SummerDesignDay
8,13.659136670643687
10,79039487.46122203
891,57797246.06194193
2,1, 7,21, 0, 3, 0.00,60.00,SummerDesignDay
1125,22.225525169626314
1165,22.484811189145906
1205,23.66987794386539
1245,23.0681933331114
1285,23.470217804882869
1325,22.57943661513895
1365,23.999537052829756
1405,23.81093852614218
1445,23.999170311774618
1485,24.195734897895109
1525,23.604430432678613
1565,23.91933612494734
1605,23.885041432559264
1645,22.60663333341185
1685,23.841793040590493
1725,24.198351134983147
1765,24.089661858734148
1805,23.819534821835125
1845,23.901426239390657
1885,23.19380751491437
2,1, 7,21, 0, 4, 0.00,10.00,SummerDesignDay
8,13.63560137410855
10,76590491.40255271
891,6201913.032260751
2,1, 7,21, 0, 4,10.00,20.00,SummerDesignDay
8,13.612040802606578
10,76346937.09048158
891,57697675.08951157
2,1, 7,21, 0, 4,20.00,30.00,SummerDesignDay
8,13.58846620506876
10,76230212.46323397
891,6650188.011622151
2,1, 7,21, 0, 4,30.00,40.00,SummerDesignDay
8,13.56487178447336
10,76089583.6294588
891,58138105.68369536
2,1, 7,21, 0, 4,40.00,50.00,SummerDesignDay
8,13.541257354069103
10,75925361.16767167
891,7098462.437677355
2,1, 7,21, 0, 4,50.00,60.00,SummerDesignDay
8,13.517617463812285
10,75765747.17873366
891,58577266.30423885
2,1, 7,21, 0, 4, 0.00,60.00,SummerDesignDay
1125,21.890609603105799
1165,22.171983642297766
1205,23.35848503130852
1245,22.298123595095576
1285,23.07727954565235
1325,21.83462310198014
1365,23.99960888558154
1405,23.456765702839676
1445,23.897578728775103
1485,23.83818982525838
1525,23.518642636994416
1565,23.73874366759181
1605,23.885142960226287
1645,22.417153666386118
1685,23.841348325588088
1725,23.82689855781176
1765,23.89824392556568
1805,23.669365558402544
1845,23.901178122959665
1885,23.004636402164917
2,1, 7,21, 0, 5, 0.00,10.00,SummerDesignDay
8,13.50185415824011
10,75626116.09313964
891,7479532.836743283
2,1, 7,21, 0, 5,10.00,20.00,SummerDesignDay
8,13.486076034032447
10,75503513.13598554
891,58874346.08793464
2,1, 7,21, 0, 5,20.00,30.00,SummerDesignDay
8,13.470289340350983
10,75377060.02018044
891,7778386.348444992
2,1, 7,21, 0, 5,30.00,40.00,SummerDesignDay
8,13.454493322631063
10,75255061.8311867
891,59163714.527107987
2,1, 7,21, 0, 5,40.00,50.00,SummerDesignDay
8,13.438688835118548
10,75134142.55394809
891,8077234.960949262
2,1, 7,21, 0, 5,50.00,60.00,SummerDesignDay
8,13.422888173889437
10,75017086.83068204
891,59452857.55678162
2,1, 7,21, 0, 5, 0.00,60.00,SummerDesignDay
1125,21.816874487835695
1165,22.056078109138438
1205,23.130187916864697
1245,21.931724058999469
1285,22.843260680817065
1325,21.50467884959834
1365,23.999657324093776
1405,23.377914439182957
1445,23.762786171755925
1485,23.633149976931155
1525,23.539983269135037
1565,23.574361139049914
1605,23.885038868749473
1645,22.242978859647907
1685,23.84089035961976
1725,23.761980390772356
1765,23.721603806852298
1805,23.58842801950709
1845,23.900918788066634
1885,22.83600333039602
2,1, 7,21, 0, 6, 0.00,10.00,SummerDesignDay
8,13.438688835118548
10,76585808.30913176
891,8107150.692229151
2,1, 7,21, 0, 6,10.00,20.00,SummerDesignDay
8,13.454493322631063
10,76999940.28482802
891,59978489.7981383
2,1, 7,21, 0, 6,20.00,30.00,SummerDesignDay
8,13.470289340350983
10,76994408.07356939
891,60033400.23771231
2,1, 7,21, 0, 6,30.00,40.00,SummerDesignDay
8,13.486076034032447
10,76989326.80950327
891,7658882.775143335
2,1, 7,21, 0, 6,40.00,50.00,SummerDesignDay
8,13.50185415824011
10,76999058.25564717
891,59562350.77206354
2,1, 7,21, 0, 6,50.00,60.00,SummerDesignDay
8,13.517617463812285
10,77005560.21249914
891,59638881.3298248
2,1, 7,21, 0, 6, 0.00,60.00,SummerDesignDay
1125,22.659686812587514
1165,22.380850509616605
1205,23.191369668305716
1245,21.93207980051442
1285,22.698617308101509
1325,21.505853352081446
1365,23.99967975963879
1405,23.722703474798423
1445,23.782847172862814
1485,23.4637397959475
1525,23.950968616866505
1565,23.53196270140241
1605,23.88483370268567
1645,22.14880263020112
1685,23.840578074185989
1725,23.720208492695666
1765,23.625815092188064
1805,23.617371726321236
1845,23.90066455132848
1885,22.755471179482514
2,1, 7,21, 0, 7, 0.00,10.00,SummerDesignDay
8,13.572736920571789
10,84416279.23789515
891,61895371.16168605
2,1, 7,21, 0, 7,10.00,20.00,SummerDesignDay
8,13.627748229152554
10,84926211.61847306
891,61657643.375117007
2,1, 7,21, 0, 7,20.00,30.00,SummerDesignDay
8,13.682651961920304
10,85190150.086164
891,61133547.51315657
2,1, 7,21, 0, 7,30.00,40.00,SummerDesignDay
8,13.737448093244995
10,85232394.86197075
891,60615269.50636078
2,1, 7,21, 0, 7,40.00,50.00,SummerDesignDay
8,13.792137011831216
10,85309349.29383037
891,60097154.55978355
2,1, 7,21, 0, 7,50.00,60.00,SummerDesignDay
8,13.846719282840333
10,85577587.52347861
891,59579049.86687885
2,1, 7,21, 0, 7, 0.00,60.00,SummerDesignDay
1125,23.916041492389664
1165,22.737837698017029
1205,23.597304516256107
1245,22.318284561039744
1285,22.72308579006737
1325,21.897038412082325
1365,23.999559401318263
1405,24.15345969874008
1445,23.875345711046916
1485,23.324653028196598
1525,24.001624692588
1565,23.737558309969385
1605,23.884461574859669
1645,22.21605260967264
1685,23.8402175821887
1725,23.685016517090277
1765,23.670015502756728
1805,23.590287726846019
1845,23.900424615670344
1885,22.830350885351426
2,1, 7,21, 0, 8, 0.00,10.00,SummerDesignDay
8,13.978831900527043
10,118617795.9986954
891,101939224.6757907
2,1, 7,21, 0, 8,10.00,20.00,SummerDesignDay
8,14.110321014287419
10,123798112.88854192
891,91862004.73083768
2,1, 7,21, 0, 8,20.00,30.00,SummerDesignDay
8,14.241191509616986
10,125944307.30675757
891,127627762.37969244
2,1, 7,21, 0, 8,30.00,40.00,SummerDesignDay
8,14.371447531304272
10,129047504.00277718
891,125622198.42827915
2,1, 7,21, 0, 8,40.00,50.00,SummerDesignDay
8,14.501093766564925
10,131013687.04355504
891,65234448.2566445
2,1, 7,21, 0, 8,50.00,60.00,SummerDesignDay
8,14.630134792273804
10,131183779.63494978
891,127085147.99959207
2,1, 7,21, 0, 8, 0.00,60.00,SummerDesignDay
1125,24.005424774777393
1165,23.54245551453167
1205,23.99701602509945
1245,23.2529670928941
1285,23.01849950679221
1325,22.844137017601317
1365,23.998891635548305
1405,24.503725212756053
1445,23.997513370546966
1485,23.2380856476491
1525,23.99993420493872
1565,23.99043922340462
1605,23.892988822976208
1645,22.531616683039883
1685,23.852088613655679
1725,23.659957894130249
1765,23.973119757860557
1805,23.746406072248946
1845,23.90766209910493
1885,23.14796176411392
2,1, 7,21, 0, 9, 0.00,10.00,SummerDesignDay
8,14.773641492809972
10,212456263.21280439
891,133119354.33675298
2,1, 7,21, 0, 9,10.00,20.00,SummerDesignDay
8,14.91640948124148
10,219635046.30847974
891,133866186.24671765
2,1, 7,21, 0, 9,20.00,30.00,SummerDesignDay
8,15.05843890714102
10,227007945.1515305
891,123876127.02135095
2,1, 7,21, 0, 9,30.00,40.00,SummerDesignDay
8,15.199735893563798
10,233546765.87575225
891,102248560.37046458
2,1, 7,21, 0, 9,40.00,50.00,SummerDesignDay
8,15.340306256439395
10,236660018.9346669
891,108469921.8607157
2,1, 7,21, 0, 9,50.00,60.00,SummerDesignDay
8,15.48015101768072
10,242119917.07634879
891,133776734.86439786
2,1, 7,21, 0, 9, 0.00,60.00,SummerDesignDay
1125,23.99959793700897
1165,23.999500539321305
1205,23.999358616777984
1245,23.992634397008108
1285,23.628035648451477
1325,23.930586377191479
1365,23.99876030193863
1405,23.98668833652435
1445,23.99891818958568
1485,23.21208042130947
1525,23.999653550607694
1565,23.99874863054644
1605,23.909824686630743
1645,23.634340166129765
1685,23.87543469461917
1725,23.640717610925795
1765,23.99952530669513
1805,23.996836314464138
1845,23.92215457937731
1885,23.854166817651593
2,1, 7,21, 0,10, 0.00,10.00,SummerDesignDay
8,15.60467292907716
10,309467310.3463463
891,192956523.46148695
2,1, 7,21, 0,10,10.00,20.00,SummerDesignDay
8,15.72862731650033
10,316956459.86544206
891,226910820.52961216
2,1, 7,21, 0,10,20.00,30.00,SummerDesignDay
8,15.852017409284228
10,322568664.1026334
891,176431661.09615667
2,1, 7,21, 0,10,30.00,40.00,SummerDesignDay
8,15.974848118364367
10,326376881.61236748
891,172002772.20696105
2,1, 7,21, 0,10,40.00,50.00,SummerDesignDay
8,16.097123145563505
10,330784761.50255307
891,222989989.1608905
2,1, 7,21, 0,10,50.00,60.00,SummerDesignDay
8,16.218846351168599
10,334814516.98936089
891,206917966.71527008
2,1, 7,21, 0,10, 0.00,60.00,SummerDesignDay
1125,23.999126604370998
1165,23.99935020963726
1205,23.998643789684836
1245,23.99933777550226
1285,23.998712747438068
1325,23.999319462152799
1365,23.998568977859489
1405,23.999691394807898
1445,23.99846759094271
1485,23.755103705483049
1525,23.999138622309585
1565,23.998524938174915
1605,23.883768400583084
1645,23.997075071899827
1685,23.839973126422973
1725,23.817845026845207
1765,23.99929152994954
1805,23.999652626141484
1845,23.89975707288882
1885,23.99561367148814
2,1, 7,21, 0,11, 0.00,10.00,SummerDesignDay
8,16.325793027093189
10,363650990.65568748
891,168936708.4444512
2,1, 7,21, 0,11,10.00,20.00,SummerDesignDay
8,16.432322158488288
10,367394518.010609
891,182946379.35566557
2,1, 7,21, 0,11,20.00,30.00,SummerDesignDay
8,16.538424180249178
10,370953372.69016346
891,221490478.12896074
2,1, 7,21, 0,11,30.00,40.00,SummerDesignDay
8,16.644108396469087
10,374466279.66309
891,186123422.85369868
2,1, 7,21, 0,11,40.00,50.00,SummerDesignDay
8,16.749376736593655
10,377890739.0148196
891,168683845.86629365
2,1, 7,21, 0,11,50.00,60.00,SummerDesignDay
8,16.854232613237156
10,381229773.8788982
891,197360141.749056
2,1, 7,21, 0,11, 0.00,60.00,SummerDesignDay
1125,23.998746847428909
1165,23.998887425454439
1205,23.998164287538953
1245,23.998535523090728
1285,23.998858557581639
1325,23.998454156652718
1365,23.99831338962061
1405,23.99912545802815
1445,23.998630912384248
1485,23.999101779112335
1525,23.999034098830135
1565,23.99864684843617
1605,23.884092792212216
1645,24.06562875438573
1685,23.84041650793139
1725,23.83802764758283
1765,23.999255751167739
1805,23.9992765932007
1845,23.89969249884905
1885,24.08932173512157
2,1, 7,21, 0,12, 0.00,10.00,SummerDesignDay
8,16.92390823520069
10,403194443.1867504
891,153511097.3270466
2,1, 7,21, 0,12,10.00,20.00,SummerDesignDay
8,16.99340178950456
10,403834036.55569949
891,143240418.5752379
2,1, 7,21, 0,12,20.00,30.00,SummerDesignDay
8,17.06272006743463
10,406418689.30233928
891,143235364.50286464
2,1, 7,21, 0,12,30.00,40.00,SummerDesignDay
8,17.131853229172639
10,408947634.1891679
891,143241417.92466394
2,1, 7,21, 0,12,40.00,50.00,SummerDesignDay
8,17.200807172194087
10,411480377.3824246
891,143247715.63599787
2,1, 7,21, 0,12,50.00,60.00,SummerDesignDay
8,17.269582116758607
10,414002239.1921543
891,143254016.86844204
2,1, 7,21, 0,12, 0.00,60.00,SummerDesignDay
1125,23.99867645642625
1165,23.998546807687359
1205,23.997797018584494
1245,23.998059034195099
1285,23.99826448861134
1325,23.99792323740873
1365,23.99828986456583
1405,23.998800211879755
1445,23.998838670297006
1485,23.998744072458789
1525,23.99889407149117
1565,23.99871920466533
1605,23.88436363054089
1645,24.117850840494538
1685,23.840895055234144
1725,23.838553747288086
1765,23.999163964214146
1805,23.9989843874212
1845,23.900000043934843
1885,24.160021384748594
2,1, 7,21, 0,13, 0.00,10.00,SummerDesignDay
8,17.32447360221357
10,417764177.4036203
891,176479463.42981697
2,1, 7,21, 0,13,10.00,20.00,SummerDesignDay
8,17.379251291230806
10,420832188.85375836
891,153524355.9933805
2,1, 7,21, 0,13,20.00,30.00,SummerDesignDay
8,17.433921312061729
10,423109549.8958171
891,150919933.67837785
2,1, 7,21, 0,13,30.00,40.00,SummerDesignDay
8,17.488473222557489
10,425419184.5533988
891,150997868.8693579
2,1, 7,21, 0,13,40.00,50.00,SummerDesignDay
8,17.542913447755134
10,427654998.5369604
891,151075639.47472546
2,1, 7,21, 0,13,50.00,60.00,SummerDesignDay
8,17.59724609886134
10,429818097.4927817
891,159788418.80638538
2,1, 7,21, 0,13, 0.00,60.00,SummerDesignDay
1125,23.998551305103736
1165,23.997981699159835
1205,23.99803131061995
1245,23.997517630044528
1285,23.99760414635098
1325,23.99741669915647
1365,23.998513155960155
1405,23.998526535188828
1445,23.998981598843654
1485,23.998443082708837
1525,23.998966032624268
1565,23.99865698501199
1605,23.884536067815703
1645,24.15534877417088
1685,23.84131852810981
1725,23.838815863467518
1765,23.99923555583342
1805,23.998397207115116
1845,23.900256211189313
1885,24.21083969372073
2,1, 7,21, 0,14, 0.00,10.00,SummerDesignDay
8,17.6311450462694
10,429910265.3571787
891,206009338.54560287
2,1, 7,21, 0,14,10.00,20.00,SummerDesignDay
8,17.665000449016245
10,432291272.1291624
891,188423967.9397019
2,1, 7,21, 0,14,20.00,30.00,SummerDesignDay
8,17.698812743128934
10,433819823.4713762
891,161986886.13749618
2,1, 7,21, 0,14,30.00,40.00,SummerDesignDay
8,17.732582050940107
10,435361570.59072998
891,162179437.7646133
2,1, 7,21, 0,14,40.00,50.00,SummerDesignDay
8,17.766307345121004
10,436900595.60164389
891,202840110.1860954
2,1, 7,21, 0,14,50.00,60.00,SummerDesignDay
8,17.79999023167558
10,439943163.8237658
891,202500346.65396018
2,1, 7,21, 0,14, 0.00,60.00,SummerDesignDay
1125,23.99851040696292
1165,23.997553351724237
1205,23.99828601107095
1245,23.997044600414239
1285,23.99697966609352
1325,23.99700161266465
1365,23.998703956057214
1405,23.99821285903222
1445,23.99903571785796
1485,23.998144639924509
1525,23.9990245969617
1565,23.998545802038789
1605,23.88464758768777
1645,24.18202887662109
1685,23.841732445140129
1725,23.838811667194553
1765,23.999281578106616
1805,23.997885489617987
1845,23.90041072984857
1885,24.24680956844311
2,1, 7,21, 0,15, 0.00,10.00,SummerDesignDay
8,17.79999023167558
10,436867304.52549508
891,162136370.22611527
2,1, 7,21, 0,15,10.00,20.00,SummerDesignDay
8,17.79999023167558
10,437188398.12869587
891,162338135.30389945
2,1, 7,21, 0,15,20.00,30.00,SummerDesignDay
8,17.79999023167558
10,438282202.73198279
891,190041886.88169305
2,1, 7,21, 0,15,30.00,40.00,SummerDesignDay
8,17.79999023167558
10,438654962.08620807
891,208962533.80628524
2,1, 7,21, 0,15,40.00,50.00,SummerDesignDay
8,17.79999023167558
10,439105316.35059139
891,169106492.60800455
2,1, 7,21, 0,15,50.00,60.00,SummerDesignDay
8,17.79999023167558
10,439471061.052235
891,162282157.95250977
2,1, 7,21, 0,15, 0.00,60.00,SummerDesignDay
1125,23.998513952243287
1165,23.997499129766085
1205,23.998136681774555
1245,23.9971553229018
1285,23.99711702111165
1325,23.997214681906617
1365,23.998773663045257
1405,23.998365952365405
1445,23.99895712548134
1485,23.99820449063637
1525,23.998887398610806
1565,23.99852705334175
1605,23.884786627479945
1645,24.190587926260247
1685,23.842124478544709
1725,23.838964901169743
1765,23.999041615104983
1805,23.997604207348119
1845,23.900474952602399
1885,24.260041667871517
2,1, 7,21, 0,16, 0.00,10.00,SummerDesignDay
8,17.759562446305357
10,433120781.6163173
891,151668698.0423674
2,1, 7,21, 0,16,10.00,20.00,SummerDesignDay
8,17.71907809634183
10,430673404.15780767
891,172422288.82199577
2,1, 7,21, 0,16,20.00,30.00,SummerDesignDay
8,17.67853788661001
10,429186509.8277914
891,178168268.83385126
2,1, 7,21, 0,16,30.00,40.00,SummerDesignDay
8,17.63791796367351
10,427628630.9052851
891,176130651.21621708
2,1, 7,21, 0,16,40.00,50.00,SummerDesignDay
8,17.59724609886134
10,425975709.53944107
891,150319548.35217355
2,1, 7,21, 0,16,50.00,60.00,SummerDesignDay
8,17.55650676726033
10,424252390.7831863
891,150381379.20079244
2,1, 7,21, 0,16, 0.00,60.00,SummerDesignDay
1125,23.998552686410276
1165,23.997581502431264
1205,23.9981530719553
1245,23.997845053825715
1285,23.997885593805376
1325,23.998100187067889
1365,23.99853441008331
1405,23.99878499823889
1445,23.99901154052068
1485,23.99863323304935
1525,23.998823632408958
1565,23.99852405095001
1605,23.88500070017621
1645,24.175693331031256
1685,23.84245121839247
1725,23.83936311240258
1765,23.998710013650624
1805,23.997411366941337
1845,23.900387935300335
1885,24.24198598131336
2,1, 7,21, 0,17, 0.00,10.00,SummerDesignDay
8,17.50209486331892
10,423596396.43105867
891,141128461.65540118
2,1, 7,21, 0,17,10.00,20.00,SummerDesignDay
8,17.447570789624618
10,420452337.10764357
891,140174475.23937623
2,1, 7,21, 0,17,20.00,30.00,SummerDesignDay
8,17.392929544208135
10,418139169.5781251
891,140173979.8682622
2,1, 7,21, 0,17,30.00,40.00,SummerDesignDay
8,17.33818013976614
10,415802770.2860562
891,140172720.32306964
2,1, 7,21, 0,17,40.00,50.00,SummerDesignDay
8,17.283317298559309
10,413454789.8189045
891,140171439.1897501
2,1, 7,21, 0,17,50.00,60.00,SummerDesignDay
8,17.22833552437677
10,411094930.3779798
891,140170158.362421
2,1, 7,21, 0,17, 0.00,60.00,SummerDesignDay
1125,23.998619672313749
1165,23.997681307149234
1205,23.99841362808034
1245,23.998344538183575
1285,23.9984796524481
1325,23.99879954483249
1365,23.998169687985983
1405,23.99911837514361
1445,23.99901737316449
1485,23.99906733536092
1525,23.998864407213586
1565,23.998540823360185
1605,23.88516282709355
1645,24.14485576488961
1685,23.842543182144117
1725,23.839703494184915
1765,23.99854699291663
1805,23.997101861258775
1845,23.900324987441583
1885,24.20089057924868
2,1, 7,21, 0,18, 0.00,10.00,SummerDesignDay
8,17.159453019160176
10,401600453.79380419
891,140031545.2377541
2,1, 7,21, 0,18,10.00,20.00,SummerDesignDay
8,17.090391773337136
10,398529045.46653428
891,140014930.40506179
2,1, 7,21, 0,18,20.00,30.00,SummerDesignDay
8,17.021151077964786
10,395602172.7821061
891,140013437.02335493
2,1, 7,21, 0,18,30.00,40.00,SummerDesignDay
8,16.951729380464653
10,392703040.8321103
891,140011924.80561213
2,1, 7,21, 0,18,40.00,50.00,SummerDesignDay
8,16.882126503829249
10,389798328.97530969
891,140010411.0513336
2,1, 7,21, 0,18,50.00,60.00,SummerDesignDay
8,16.812341807494034
10,386888523.0906193
891,140008896.52757738
2,1, 7,21, 0,18, 0.00,60.00,SummerDesignDay
1125,23.998916189333813
1165,23.998161419416396
1205,23.998889968606919
1245,23.998566384865329
1285,23.998542082727167
1325,23.999051162287697
1365,23.99778721120157
1405,23.999215522627908
1445,23.998929254280559
1485,23.999203284788704
1525,23.999094158533109
1565,23.998436577368279
1605,23.885227841149335
1645,24.105916059633555
1685,23.84254453898663
1725,23.839916690291444
1765,23.99867748757256
1805,23.997291619585714
1845,23.90024439621028
1885,24.14754845866183
2,1, 7,21, 0,19, 0.00,10.00,SummerDesignDay
8,16.707321072823203
10,359972739.88088938
891,142423442.26995246
2,1, 7,21, 0,19,10.00,20.00,SummerDesignDay
8,16.601881826644556
10,356061676.55780878
891,142700191.90272928
2,1, 7,21, 0,19,20.00,30.00,SummerDesignDay
8,16.496030555252849
10,352244659.3115105
891,142707237.68252407
2,1, 7,21, 0,19,30.00,40.00,SummerDesignDay
8,16.389760181474104
10,348413347.7891881
891,142714781.26423825
2,1, 7,21, 0,19,40.00,50.00,SummerDesignDay
8,16.283067654262039
10,344643485.6630237
891,142722293.04215689
2,1, 7,21, 0,19,50.00,60.00,SummerDesignDay
8,16.17595057957811
10,340895839.2212638
891,142729753.3290421
2,1, 7,21, 0,19, 0.00,60.00,SummerDesignDay
1125,23.999642021226113
1165,23.998788069495779
1205,23.99951581276304
1245,23.998316239364344
1285,23.99796841889005
1325,23.998886524150835
1365,23.99684251464215
1405,23.998986971971616
1445,23.998868295349238
1485,23.99897250136034
1525,23.999409342632874
1565,23.99836406103042
1605,23.88526602217343
1645,24.051732319095039
1685,23.842515737998786
1725,23.839824971177973
1765,23.999237608115597
1805,23.99787545120475
1845,23.89991001866197
1885,24.072629531025809
2,1, 7,21, 0,20, 0.00,10.00,SummerDesignDay
8,16.097123145563505
10,319638691.4804448
891,143407716.78141508
2,1, 7,21, 0,20,10.00,20.00,SummerDesignDay
8,16.018070242471564
10,317709077.40995326
891,143836175.21130724
2,1, 7,21, 0,20,20.00,30.00,SummerDesignDay
8,15.938779752340516
10,315149258.3108896
891,143504907.78760437
2,1, 7,21, 0,20,30.00,40.00,SummerDesignDay
8,15.85926152575189
10,314411812.47155538
891,143514746.4415042
2,1, 7,21, 0,20,40.00,50.00,SummerDesignDay
8,15.779503718563929
10,308833230.99304589
891,143525677.41205053
2,1, 7,21, 0,20,50.00,60.00,SummerDesignDay
8,15.699515709672767
10,307094155.4821248
891,143536721.04160346
2,1, 7,21, 0,20, 0.00,60.00,SummerDesignDay
1125,25.24109196984156
1165,23.999560436932624
1205,23.999880311083986
1245,23.998365868660686
1285,23.9974387372134
1325,23.99876563795823
1365,23.997249668876223
1405,23.998810784898024
1445,23.998757528645908
1485,23.998810524405515
1525,23.99973210391499
1565,23.99877445184372
1605,23.91085755622548
1645,23.995952060161156
1685,23.877320951619639
1725,23.875352950497417
1765,23.99975821098647
1805,23.998998499357215
1845,23.923675718089375
1885,23.994625766585036
2,1, 7,21, 0,21, 0.00,10.00,SummerDesignDay
8,15.63389147320404
10,300869256.9612161
891,209173860.3373216
2,1, 7,21, 0,21,10.00,20.00,SummerDesignDay
8,15.56810827419793
10,300228744.92659577
891,216619177.58140529
2,1, 7,21, 0,21,20.00,30.00,SummerDesignDay
8,15.502170882753524
10,297147187.5160964
891,171803111.83371527
2,1, 7,21, 0,21,30.00,40.00,SummerDesignDay
8,15.436068032613852
10,294081922.00981798