Program Version,EnergyPlus, Version 8.9.0-eba93e8e1b, YMD=2019.03.28 13:39
1,5,Environment Title[],Latitude[deg],Longitude[deg],Time Zone[],Elevation[m]
2,8,Day of Simulation[],Month[],Day of Month[],DST Indicator[1=yes 0=no],Hour[],StartMinute[],EndMinute[],DayType
3,5,Cumulative Day of Simulation[],Month[],Day of Month[],DST Indicator[1=yes 0=no],DayType  ! When Daily Report Variables Requested
4,2,Cumulative Days of Simulation[],Month[]  ! When Monthly Report Variables Requested
5,1,Cumulative Days of Simulation[] ! When Run Period Report Variables Requested
6,1,Calendar Year of Simulation[] ! When Annual Report Variables Requested
7,9,Environment,Site Outdoor Air Drybulb Temperature [C] !Monthly [Value,Min,Day,Hour,Minute,Max,Day,Hour,Minute]
8,1,Environment,Site Outdoor Air Wetbulb Temperature [C] !TimeStep
1112,1,SP-ATRIUM (6 =< HEIGHT <= 12M)-SCH-A-SPACE FUNCTION SYS-6 FLR-1 SCH-A HPLCMT-EAST ZN,Zone Air Temperature [C] !Hourly
1113,7,SP-ATRIUM (6 =< HEIGHT <= 12M)-SCH-A-SPACE FUNCTION SYS-6 FLR-1 SCH-A HPLCMT-EAST ZN,Zone Air Relative Humidity [%] !Daily [Value,Min,Hour,Minute,Max,Hour,Minute]
1152,1,SP-ATRIUM (6 =< HEIGHT <= 12M)-SCH-B-SPACE FUNCTION SYS-6 FLR-2 SCH-B HPLCMT-WEST ZN,Zone Air Temperature [C] !Hourly
1153,7,SP-ATRIUM (6 =< HEIGHT <= 12M)-SCH-B-SPACE FUNCTION SYS-6 FLR-2 SCH-B HPLCMT-WEST ZN,Zone Air Relative Humidity [%] !Daily [Value,Min,Hour,Minute,Max,Hour,Minute]
1192,1,SP-ATRIUM (6 =< HEIGHT <= 12M)-SCH-C-SPACE FUNCTION SYS-6 FLR-3 SCH-C HPLCMT-WEST ZN,Zone Air Temperature [C] !Hourly
1193,7,SP-ATRIUM (6 =< HEIGHT <= 12M)-SCH-C-SPACE FUNCTION SYS-6 FLR-3 SCH-C HPLCMT-WEST ZN,Zone Air Relative Humidity [%] !Daily [Value,Min,Hour,Minute,Max,Hour,Minute]
1232,1,SP-ATRIUM (6 =< HEIGHT <= 12M)-SCH-D-SPACE FUNCTION SYS-6 FLR-1 SCH-D HPLCMT-CORE ZN,Zone Air Temperature [C] !Hourly
1233,7,SP-ATRIUM (6 =< HEIGHT <= 12M)-SCH-D-SPACE FUNCTION SYS-6 FLR-1 SCH-D HPLCMT-CORE ZN,Zone Air Relative Humidity [%] !Daily [Value,Min,Hour,Minute,Max,Hour,Minute]
1272,1,SP-ATRIUM (6 =< HEIGHT <= 12M)-SCH-E-SPACE FUNCTION SYS-6 FLR-2 SCH-E HPLCMT-NORTH ZN,Zone Air Temperature [C] !Hourly
1273,7,SP-ATRIUM (6 =< HEIGHT <= 12M)-SCH-E-SPACE FUNCTION SYS-6 FLR-2 SCH-E HPLCMT-NORTH ZN,Zone Air Relative Humidity [%] !Daily [Value,Min,Hour,Minute,Max,Hour,Minute]
1312,1,SP-ATRIUM (6 =< HEIGHT <= 12M)-SCH-F-SPACE FUNCTION SYS-6 FLR-2 SCH-F HPLCMT-EAST ZN,Zone Air Temperature [C] !Hourly
1313,7,SP-ATRIUM (6 =< HEIGHT <= 12M)-SCH-F-SPACE FUNCTION SYS-6 FLR-2 SCH-F HPLCMT-EAST ZN,Zone Air Relative Humidity [%] !Daily [Value,Min,Hour,Minute,Max,Hour,Minute]
1352,1,SP-WHOLEBUILDING-OFFICE SYS-6 FLR-4 SCH-A HPLCMT-SOUTH ZN,Zone Air Temperature [C] !Hourly
1353,7,SP-WHOLEBUILDING-OFFICE SYS-6 FLR-4 SCH-A HPLCMT-SOUTH ZN,Zone Air Relative Humidity [%] !Daily [Value,Min,Hour,Minute,Max,Hour,Minute]
1392,1,SP-WHOLEBUILDING-PENITENTIARY SYS-3 FLR-3 SCH-H HPLCMT-CORE ZN,Zone Air Temperature [C] !Hourly
1393,7,SP-WHOLEBUILDING-PENITENTIARY SYS-3 FLR-3 SCH-H HPLCMT-CORE ZN,Zone Air Relative Humidity [%] !Daily [Value,Min,Hour,Minute,Max,Hour,Minute]
1432,1,SP-WHOLEBUILDING-PERFORMING ARTS THEATRE SYS-3 FLR-3 SCH-C HPLCMT-EAST ZN,Zone Air Temperature [C] !Hourly
1433,7,SP-WHOLEBUILDING-PERFORMING ARTS THEATRE SYS-3 FLR-3 SCH-C HPLCMT-EAST ZN,Zone Air Relative Humidity [%] !Daily [Value,Min,Hour,Minute,Max,Hour,Minute]
1472,1,SP-WHOLEBUILDING-POLICE STATION SYS-3 FLR-3 SCH-H HPLCMT-NORTH ZN,Zone Air Temperature [C] !Hourly
1473,7,SP-WHOLEBUILDING-POLICE STATION SYS-3 FLR-3 SCH-H HPLCMT-NORTH ZN,Zone Air Relative Humidity [%] !Daily [Value,Min,Hour,Minute,Max,Hour,Minute]
1512,1,SP-WHOLEBUILDING-POST OFFICE SYS-6 FLR-1 SCH-A HPLCMT-WEST ZN,Zone Air Temperature [C] !Hourly
1513,7,SP-WHOLEBUILDING-POST OFFICE SYS-6 FLR-1 SCH-A HPLCMT-WEST ZN,Zone Air Relative Humidity [%] !Daily [Value,Min,Hour,Minute,Max,Hour,Minute]
1552,1,SP-WHOLEBUILDING-RELIGIOUS BUILDING SYS-3 FLR-4 SCH-I HPLCMT-CORE ZN,Zone Air Temperature [C] !Hourly
1553,7,SP-WHOLEBUILDING-RELIGIOUS BUILDING SYS-3 FLR-4 SCH-I HPLCMT-CORE ZN,Zone Air Relative Humidity [%] !Daily [Value,Min,Hour,Minute,Max,Hour,Minute]
1592,1,SP-WHOLEBUILDING-RETAIL AREA SYS-6 FLR-3 SCH-C HPLCMT-SOUTH ZN,Zone Air Temperature [C] !Hourly
1593,7,SP-WHOLEBUILDING-RETAIL AREA SYS-6 FLR-3 SCH-C HPLCMT-SOUTH ZN,Zone Air Relative Humidity [%] !Daily [Value,Min,Hour,Minute,Max,Hour,Minute]
1632,1,SP-WHOLEBUILDING-SCHOOL/UNIVERSITY SYS-3 FLR-2 SCH-D HPLCMT-SOUTH ZN,Zone Air Temperature [C] !Hourly
1633,7,SP-WHOLEBUILDING-SCHOOL/UNIVERSITY SYS-3 FLR-2 SCH-D HPLCMT-SOUTH ZN,Zone Air Relative Humidity [%] !Daily [Value,Min,Hour,Minute,Max,Hour,Minute]
1672,1,SP-WHOLEBUILDING-SPORTS ARENA SYS-6 FLR-1 SCH-B HPLCMT-NORTH ZN,Zone Air Temperature [C] !Hourly
1673,7,SP-WHOLEBUILDING-SPORTS ARENA SYS-6 FLR-1 SCH-B HPLCMT-NORTH ZN,Zone Air Relative Humidity [%] !Daily [Value,Min,Hour,Minute,Max,Hour,Minute]
1712,1,SP-WHOLEBUILDING-STORAGE GARAGE SYS-4 FLR-4 SCH-K HPLCMT-WEST ZN,Zone Air Temperature [C] !Hourly
1713,7,SP-WHOLEBUILDING-STORAGE GARAGE SYS-4 FLR-4 SCH-K HPLCMT-WEST ZN,Zone Air Relative Humidity [%] !Daily [Value,Min,Hour,Minute,Max,Hour,Minute]
1752,1,SP-WHOLEBUILDING-TOWN HALL SYS-3 FLR-2 SCH-D HPLCMT-CORE ZN,Zone Air Temperature [C] !Hourly
1753,7,SP-WHOLEBUILDING-TOWN HALL SYS-3 FLR-2 SCH-D HPLCMT-CORE ZN,Zone Air Relative Humidity [%] !Daily [Value,Min,Hour,Minute,Max,Hour,Minute]
1792,1,SP-WHOLEBUILDING-TRANSPORTATION FACILITY SYS-6 FLR-4 SCH-H HPLCMT-EAST ZN,Zone Air Temperature [C] !Hourly
1793,7,SP-WHOLEBUILDING-TRANSPORTATION FACILITY SYS-6 FLR-4 SCH-H HPLCMT-EAST ZN,Zone Air Relative Humidity [%] !Daily [Value,Min,Hour,Minute,Max,Hour,Minute]
1832,1,SP-WHOLEBUILDING-WAREHOUSE SYS-4 FLR-4 SCH-A HPLCMT-NORTH ZN,Zone Air Temperature [C] !Hourly
1833,7,SP-WHOLEBUILDING-WAREHOUSE SYS-4 FLR-4 SCH-A HPLCMT-NORTH ZN,Zone Air Relative Humidity [%] !Daily [Value,Min,Hour,Minute,Max,Hour,Minute]
1872,1,SP-WHOLEBUILDING-WORKSHOP SYS-3 FLR-1 SCH-A HPLCMT-SOUTH ZN,Zone Air Temperature [C] !Hourly
1873,7,SP-WHOLEBUILDING-WORKSHOP SYS-3 FLR-1 SCH-A HPLCMT-SOUTH ZN,Zone Air Relative Humidity [%] !Daily [Value,Min,Hour,Minute,Max,Hour,Minute]
10,1,Electricity:Facility [J] !TimeStep
878,1,Gas:Facility [J] !TimeStep
End of Data Dictionary
1,FORT MCMURRAY AP ANN CLG .4% CONDNS DB=>MWB,  56.65,-111.22,  -7.00, 369.10
2,1, 7,21, 0, 1, 0.00,10.00,SummerDesignDay
8,14.218136923962174
10,136355717.7112433
878,40650999.364482
2,1, 7,21, 0, 1,10.00,20.00,SummerDesignDay
8,14.171982153293495
10,136427716.48781187
878,39402056.31320594
2,1, 7,21, 0, 1,20.00,30.00,SummerDesignDay
8,14.125744780286427
10,136061316.60989005
878,39272675.555605549
2,1, 7,21, 0, 1,30.00,40.00,SummerDesignDay
8,14.079436086331978
10,135944939.94336266
878,39888578.86898035
2,1, 7,21, 0, 1,40.00,50.00,SummerDesignDay
8,14.033050387896898
10,135829226.90018655
878,52898837.00457674
2,1, 7,21, 0, 1,50.00,60.00,SummerDesignDay
8,13.986581233564835
10,135712490.60255195
878,52913661.81674531
2,1, 7,21, 0, 1, 0.00,60.00,SummerDesignDay
1112,23.60896333141537
1152,23.99946955560742
1192,23.38590999107747
1232,23.607936813955097
1272,24.00646037315431
1312,23.99928910530264
1352,20.694389889551095
1392,23.996520407529148
1432,25.166082737533505
1472,23.99851177065659
1512,23.736147038484316
1552,24.3280218266363
1592,23.6638231242042
1632,24.49603454597025
1672,23.998333058566414
1712,20.96303764469869
1752,24.727163543731139
1792,23.55092576085543
1832,24.264998570029169
1872,23.70200209144971
2,1, 7,21, 0, 2, 0.00,10.00,SummerDesignDay
8,13.95555882260429
10,120796120.82214453
878,51522035.98383352
2,1, 7,21, 0, 2,10.00,20.00,SummerDesignDay
8,13.924507755336454
10,120705404.65671377
878,52411571.76190085
2,1, 7,21, 0, 2,20.00,30.00,SummerDesignDay
8,13.893416042989206
10,120612005.07983218
878,52660396.726779069
2,1, 7,21, 0, 2,30.00,40.00,SummerDesignDay
8,13.862289589689029
10,120517162.79484828
878,46495787.23787872
2,1, 7,21, 0, 2,40.00,50.00,SummerDesignDay
8,13.831134407608739
10,120421453.60376482
878,35954886.60961546
2,1, 7,21, 0, 2,50.00,60.00,SummerDesignDay
8,13.799938415548118
10,120327765.95879223
878,34952268.20845215
2,1, 7,21, 0, 2, 0.00,60.00,SummerDesignDay
1112,23.55573204923603
1152,23.916665001328796
1192,23.228796664828029
1232,23.55440777780167
1272,23.961162840530574
1312,23.999257246933455
1352,20.440783813230927
1392,23.99662168881751
1432,24.926976935663764
1472,23.998562335665328
1512,23.662078090586005
1552,23.728044406397115
1592,23.46617975305527
1632,24.286940705762935
1672,24.407615728369224
1712,20.444755487549768
1752,24.628520874020226
1792,23.36713075869659
1832,23.95200251067176
1872,23.443914315973399
2,1, 7,21, 0, 3, 0.00,10.00,SummerDesignDay
8,13.776521671948676
10,113778447.05434607
878,36680107.747239608
2,1, 7,21, 0, 3,10.00,20.00,SummerDesignDay
8,13.753085235778466
10,113694881.31103464
878,47518708.54337383
2,1, 7,21, 0, 3,20.00,30.00,SummerDesignDay
8,13.729636002354969
10,113604734.35780342
878,47583839.94814763
2,1, 7,21, 0, 3,30.00,40.00,SummerDesignDay
8,13.706147375533054
10,113512143.16530486
878,47656513.89721694
2,1, 7,21, 0, 3,40.00,50.00,SummerDesignDay
8,13.682651961920304
10,113419297.78511925
878,29282364.59684004
2,1, 7,21, 0, 3,50.00,60.00,SummerDesignDay
8,13.659136670643687
10,113328973.75786464
878,20573196.629488134
2,1, 7,21, 0, 3, 0.00,60.00,SummerDesignDay
1112,23.50727242915293
1152,23.582712443220289
1192,23.067356573282969
1232,23.510524444816409
1272,23.911421253202297
1312,23.999214108513106
1352,20.209850747864797
1392,23.996740608940198
1432,24.72182098009844
1472,23.99861066286847
1512,23.590207477846027
1552,23.013234305838947
1592,23.273614766190965
1632,24.09097993389349
1672,23.983025660747875
1712,20.0463524500189
1752,24.5236272202762
1792,23.19320388444689
1832,23.674819080263704
1872,23.240458217282649
2,1, 7,21, 0, 4, 0.00,10.00,SummerDesignDay
8,13.63560137410855
10,112952825.9657756
878,45290852.76291224
2,1, 7,21, 0, 4,10.00,20.00,SummerDesignDay
8,13.612040802606578
10,112867171.79712264
878,47540816.491539929
2,1, 7,21, 0, 4,20.00,30.00,SummerDesignDay
8,13.58846620506876
10,112774800.31051387
878,47612267.14071824
2,1, 7,21, 0, 4,30.00,40.00,SummerDesignDay
8,13.56487178447336
10,112681784.44918876
878,45369079.31381307
2,1, 7,21, 0, 4,40.00,50.00,SummerDesignDay
8,13.541257354069103
10,112589020.27365838
878,21021361.382549719
2,1, 7,21, 0, 4,50.00,60.00,SummerDesignDay
8,13.517617463812285
10,112502740.17998933
878,28866776.59450449
2,1, 7,21, 0, 4, 0.00,60.00,SummerDesignDay
1112,23.4565028843479
1152,23.384107191132256
1192,22.900883011388218
1232,23.46395129951821
1272,23.85180610792577
1312,23.999199616844746
1352,20.002582197322146
1392,23.996866048815226
1432,24.533568237166038
1472,23.998654733893699
1512,23.51168731191729
1552,22.626760491569234
1592,23.0848064590693
1632,23.90603530463307
1672,23.597732938257996
1712,19.706543819876968
1752,24.425365012185237
1792,23.035400489521594
1832,23.433183144100697
1872,23.059382932799556
2,1, 7,21, 0, 5, 0.00,10.00,SummerDesignDay
8,13.50185415824011
10,112430356.58956485
878,47509437.43659043
2,1, 7,21, 0, 5,10.00,20.00,SummerDesignDay
8,13.486076034032447
10,112469614.76544066
878,47568595.978044409
2,1, 7,21, 0, 5,20.00,30.00,SummerDesignDay
8,13.470289340350983
10,112499337.85375817
878,47641040.11528167
2,1, 7,21, 0, 5,30.00,40.00,SummerDesignDay
8,13.454493322631063
10,112537373.92172148
878,34937125.06288398
2,1, 7,21, 0, 5,40.00,50.00,SummerDesignDay
8,13.438688835118548
10,112575449.70210977
878,20742148.289090054
2,1, 7,21, 0, 5,50.00,60.00,SummerDesignDay
8,13.422888173889437
10,112607997.67265027
878,39506877.54343967
2,1, 7,21, 0, 5, 0.00,60.00,SummerDesignDay
1112,23.40797567948206
1152,23.268737206667287
1192,22.739801505463509
1232,23.418282768877928
1272,23.855424114043247
1312,23.999124570131497
1352,19.881046590677856
1392,23.99698453895228
1432,24.456327815874123
1472,23.998624953815037
1512,23.431971357457674
1552,22.406605800462306
1592,22.907584228143795
1632,23.73525408195415
1672,23.493681955532997
1712,19.425404696543479
1752,24.33286391065056
1792,23.165563381002355
1832,23.391948104351145
1872,22.890823295306889
2,1, 7,21, 0, 6, 0.00,10.00,SummerDesignDay
8,13.438688835118548
10,112653102.14180301
878,47527819.42511813
2,1, 7,21, 0, 6,10.00,20.00,SummerDesignDay
8,13.454493322631063
10,112677082.51700418
878,47596881.17869859
2,1, 7,21, 0, 6,20.00,30.00,SummerDesignDay
8,13.470289340350983
10,112921912.41226916
878,47669714.45222058
2,1, 7,21, 0, 6,30.00,40.00,SummerDesignDay
8,13.486076034032447
10,113025498.51133855
878,24425126.684758016
2,1, 7,21, 0, 6,40.00,50.00,SummerDesignDay
8,13.50185415824011
10,113125124.86892955
878,23189120.32229452
2,1, 7,21, 0, 6,50.00,60.00,SummerDesignDay
8,13.517617463812285
10,113273025.40981536
878,47502542.52439427
2,1, 7,21, 0, 6, 0.00,60.00,SummerDesignDay
1112,23.373906378294085
1152,23.1838289222642
1192,22.605033325767307
1232,23.374349914061925
1272,23.935423715982407
1312,23.998980263454866
1352,20.002996354368308
1392,23.997077564003374
1432,24.81293135703169
1472,23.99859333131204
1512,23.354379498258127
1552,22.465290064426147
1592,22.765266921450637
1632,23.6331815949854
1672,23.420710277817148
1712,19.39619672817579
1752,24.27659432052553
1792,23.936492383922695
1832,23.80728893536205
1872,22.788803127547629
2,1, 7,21, 0, 7, 0.00,10.00,SummerDesignDay
8,13.572736920571789
10,113758270.50590955
878,47553485.54821549
2,1, 7,21, 0, 7,10.00,20.00,SummerDesignDay
8,13.627748229152554
10,114469168.95119648
878,47625531.932967428
2,1, 7,21, 0, 7,20.00,30.00,SummerDesignDay
8,13.682651961920304
10,114587971.34028219
878,40569752.038893129
2,1, 7,21, 0, 7,30.00,40.00,SummerDesignDay
8,13.737448093244995
10,115035313.3191803
878,20898039.150986136
2,1, 7,21, 0, 7,40.00,50.00,SummerDesignDay
8,13.792137011831216
10,115453174.70677592
878,33759012.522158969
2,1, 7,21, 0, 7,50.00,60.00,SummerDesignDay
8,13.846719282840333
10,115901338.05053289
878,47516999.986548278
2,1, 7,21, 0, 7, 0.00,60.00,SummerDesignDay
1112,23.371654961253044
1152,23.113426849722477
1192,22.491683341408778
1232,23.33212788032225
1272,23.858554799079049
1312,23.998910199086109
1352,20.346289920088759
1392,23.997142145072315
1432,25.361499595220253
1472,23.998656983609608
1512,23.279859419103773
1552,22.86945378178847
1592,22.658373868881144
1632,23.64551630580969
1672,23.36208524235705
1712,19.76954601543241
1752,24.290534499089757
1792,23.99854493305317
1832,24.001610967944015
1872,22.830225535264846
2,1, 7,21, 0, 8, 0.00,10.00,SummerDesignDay
8,13.978831900527043
10,144260550.19222037
878,72280521.49156925
2,1, 7,21, 0, 8,10.00,20.00,SummerDesignDay
8,14.110321014287419
10,139991609.90882243
878,54798948.8901006
2,1, 7,21, 0, 8,20.00,30.00,SummerDesignDay
8,14.241191509616986
10,141906299.27184359
878,34792943.88101185
2,1, 7,21, 0, 8,30.00,40.00,SummerDesignDay
8,14.371447531304272
10,143665682.87991128
878,24297532.233889935
2,1, 7,21, 0, 8,40.00,50.00,SummerDesignDay
8,14.501093766564925
10,142206194.9823124
878,39892750.17951189
2,1, 7,21, 0, 8,50.00,60.00,SummerDesignDay
8,14.630134792273804
10,143484114.52502138
878,47983197.60157119
2,1, 7,21, 0, 8, 0.00,60.00,SummerDesignDay
1112,23.536962974457326
1152,23.064200681485106
1192,22.416531446833586
1232,23.299343061366434
1272,23.829543098098339
1312,23.999224450081458
1352,22.036101994411355
1392,23.99775461710891
1432,24.072205103033985
1472,23.99894970614186
1512,23.502086614407025
1552,23.73736520536704
1592,22.60239683726435
1632,23.831879825318095
1672,23.311258154328156
1712,20.703507926183187
1752,24.001831564737136
1792,23.998821482815076
1832,23.999934848983885
1872,23.41388781442565
2,1, 7,21, 0, 9, 0.00,10.00,SummerDesignDay
8,14.773641492809972
10,220887880.06314669
878,57573580.149000648
2,1, 7,21, 0, 9,10.00,20.00,SummerDesignDay
8,14.91640948124148
10,226805287.5040625
878,58796540.07213826
2,1, 7,21, 0, 9,20.00,30.00,SummerDesignDay
8,15.05843890714102
10,228511962.0716795
878,58777794.89397025
2,1, 7,21, 0, 9,30.00,40.00,SummerDesignDay
8,15.199735893563798
10,231476950.03017167
878,58791661.58939193
2,1, 7,21, 0, 9,40.00,50.00,SummerDesignDay
8,15.340306256439395
10,235268200.72958354
878,58848359.60052106
2,1, 7,21, 0, 9,50.00,60.00,SummerDesignDay
8,15.48015101768072
10,237374157.01236878
878,53828777.06824988
2,1, 7,21, 0, 9, 0.00,60.00,SummerDesignDay
1112,23.98072680481157
1152,23.036274805612213
1192,22.609966229452096
1232,23.490242801182757
1272,23.98693389021412
1312,23.999477930180729
1352,23.584195471627166
1392,23.997772841094016
1432,23.9995783453665
1472,23.998971410837546
1512,23.98343739787319
1552,25.268263846927835
1592,23.164486026138986
1632,23.999776085582608
1672,23.260798830912184
1712,22.273885875852188
1752,23.99984263543674
1792,23.998901815569416
1832,23.999784811976978
1872,23.99835728877747
2,1, 7,21, 0,10, 0.00,10.00,SummerDesignDay
8,15.60467292907716
10,310304171.7511533
878,60306818.805335748
2,1, 7,21, 0,10,10.00,20.00,SummerDesignDay
8,15.72862731650033
10,316858983.9529246
878,62088648.89616788
2,1, 7,21, 0,10,20.00,30.00,SummerDesignDay
8,15.852017409284228
10,318473341.83529028
878,61938195.04239887
2,1, 7,21, 0,10,30.00,40.00,SummerDesignDay
8,15.974848118364367
10,322080459.63206157
878,62011383.65634046
2,1, 7,21, 0,10,40.00,50.00,SummerDesignDay
8,16.097123145563505
10,325065522.7754646
878,62038696.51908626
2,1, 7,21, 0,10,50.00,60.00,SummerDesignDay
8,16.218846351168599
10,327839053.19304999
878,62064363.95454234
2,1, 7,21, 0,10, 0.00,60.00,SummerDesignDay
1112,23.999567149948648
1152,23.24950948219494
1192,22.91844500211189
1232,23.979698245465163
1272,23.999759770013794
1312,23.999611963460756
1352,23.999464983828177
1392,23.997941853607938
1432,23.999537928586624
1472,23.999070228097684
1512,23.999699992716957
1552,26.91303817205535
1592,23.893116842853816
1632,23.998835770144184
1672,23.767597314130943
1712,23.895071720666285
1752,23.999339321912644
1792,23.9989959822144
1832,23.999735188254033
1872,23.99937377900974
2,1, 7,21, 0,11, 0.00,10.00,SummerDesignDay
8,16.325793027093189
10,336096015.64454349
878,72553238.52317219
2,1, 7,21, 0,11,10.00,20.00,SummerDesignDay
8,16.432322158488288
10,339495075.7405619
878,80594666.2465868
2,1, 7,21, 0,11,20.00,30.00,SummerDesignDay
8,16.538424180249178
10,341807690.0324075
878,91856748.32969652
2,1, 7,21, 0,11,30.00,40.00,SummerDesignDay
8,16.644108396469087
10,344107237.7558648
878,91938528.10023906
2,1, 7,21, 0,11,40.00,50.00,SummerDesignDay
8,16.749376736593655
10,346370561.2323625
878,80198458.00568895
2,1, 7,21, 0,11,50.00,60.00,SummerDesignDay
8,16.854232613237156
10,348613233.56282028
878,73580124.50620653
2,1, 7,21, 0,11, 0.00,60.00,SummerDesignDay
1112,23.999073020836833
1152,23.571225917536066
1192,23.407657026336719
1232,23.999297391679965
1272,23.999236241245766
1312,23.999646193127587
1352,23.999093477147338
1392,23.996895428576907
1432,23.999082141334584
1472,23.998623877314619
1512,23.99932320131877
1552,28.530100569418747
1592,23.999944431738269
1632,23.997308802811444
1672,23.999348007841524
1712,25.575342741757046
1752,23.99888961115276
1792,23.998683754064733
1832,23.999687945483119
1872,23.999099337561046
2,1, 7,21, 0,12, 0.00,10.00,SummerDesignDay
8,16.92390823520069
10,355336172.0355688
878,71551002.41532462
2,1, 7,21, 0,12,10.00,20.00,SummerDesignDay
8,16.99340178950456
10,356987318.03925547
878,71294662.41052725
2,1, 7,21, 0,12,20.00,30.00,SummerDesignDay
8,17.06272006743463
10,359539627.6532041
878,71271881.03062994
2,1, 7,21, 0,12,30.00,40.00,SummerDesignDay
8,17.131853229172639
10,361455281.9310818
878,71248914.55267057
2,1, 7,21, 0,12,40.00,50.00,SummerDesignDay
8,17.200807172194087
10,363499859.1751826
878,84209901.30240724
2,1, 7,21, 0,12,50.00,60.00,SummerDesignDay
8,17.269582116758607
10,365614819.9588775
878,85283497.50300706
2,1, 7,21, 0,12, 0.00,60.00,SummerDesignDay
1112,23.998835137714143
1152,23.955011514611866
1192,23.645800705115318
1232,23.998965542233763
1272,23.998949653705563
1312,23.999769939445249
1352,23.999017781884207
1392,23.996790691119306
1432,23.998794388071528
1472,23.99857799432625
1512,23.999062398187179
1552,29.788176820545464
1592,23.999885170787537
1632,23.996428914133785
1672,23.9987663603103
1712,26.93450088476257
1752,23.998698513942747
1792,23.998708012919523
1832,23.99978111495685
1872,23.998993643284949
2,1, 7,21, 0,13, 0.00,10.00,SummerDesignDay
8,17.32447360221357
10,365996325.5254949
878,93426391.47455709
2,1, 7,21, 0,13,10.00,20.00,SummerDesignDay
8,17.379251291230806
10,367993395.47952136
878,79275180.2612066
2,1, 7,21, 0,13,20.00,30.00,SummerDesignDay
8,17.433921312061729
10,369551245.35531017
878,74290552.33105272
2,1, 7,21, 0,13,30.00,40.00,SummerDesignDay
8,17.488473222557489
10,371387147.4873458
878,74262195.29745582
2,1, 7,21, 0,13,40.00,50.00,SummerDesignDay
8,17.542913447755134
10,372681489.8720747
878,74232610.20647456
2,1, 7,21, 0,13,50.00,60.00,SummerDesignDay
8,17.59724609886134
10,374284269.8070785
878,75498936.5604185
2,1, 7,21, 0,13, 0.00,60.00,SummerDesignDay
1112,23.999092642818437
1152,23.9993104304736
1192,23.942937336858035
1232,23.998896360787467
1272,23.998799563291276
1312,23.999785058060128
1352,23.99917714857004
1392,23.996626275839323
1432,23.99819852349572
1472,23.998520878629916
1512,23.999096970254887
1552,30.742436532145246
1592,23.99966618715297
1632,23.996256518209845
1672,23.99830386901995
1712,27.908492932339585
1752,23.99861319132452
1792,23.998708658007517
1832,23.999935390182104
1872,23.999097552210157
2,1, 7,21, 0,14, 0.00,10.00,SummerDesignDay
8,17.6311450462694
10,374419859.67470249
878,97155746.20777309
2,1, 7,21, 0,14,10.00,20.00,SummerDesignDay
8,17.665000449016245
10,375428418.32349327
878,97600307.27749905
2,1, 7,21, 0,14,20.00,30.00,SummerDesignDay
8,17.698812743128934
10,376224072.7095169
878,78140627.75171358
2,1, 7,21, 0,14,30.00,40.00,SummerDesignDay
8,17.732582050940107
10,376949601.596516
878,75125721.27093309
2,1, 7,21, 0,14,40.00,50.00,SummerDesignDay
8,17.766307345121004
10,377633864.574949
878,75094690.20951687
2,1, 7,21, 0,14,50.00,60.00,SummerDesignDay
8,17.79999023167558
10,378262056.88430079
878,75062517.63059949
2,1, 7,21, 0,14, 0.00,60.00,SummerDesignDay
1112,23.999155271768787
1152,23.999035659521579
1192,23.999171748094523
1232,23.99883499517234
1272,23.998752177456227
1312,23.999797855115927
1352,23.99931424871643
1392,23.996469562540125
1432,23.99763350076519
1472,23.998459604374135
1512,23.999136416737188
1552,31.423363659091974
1592,23.999528150355336
1632,23.99624049164792
1672,23.998143536574358
1712,28.622215290769394
1752,23.998537122114269
1792,23.998746211570976
1832,23.999935924984717
1872,23.999164826679665
2,1, 7,21, 0,15, 0.00,10.00,SummerDesignDay
8,17.79999023167558
10,402133065.94484987
878,86928799.5326065
2,1, 7,21, 0,15,10.00,20.00,SummerDesignDay
8,17.79999023167558
10,400895447.1313613
878,97762304.550584
2,1, 7,21, 0,15,20.00,30.00,SummerDesignDay
8,17.79999023167558
10,396933918.25351127
878,89347955.84713789
2,1, 7,21, 0,15,30.00,40.00,SummerDesignDay
8,17.79999023167558
10,395428482.819844
878,75082588.15362768
2,1, 7,21, 0,15,40.00,50.00,SummerDesignDay
8,17.79999023167558
10,391415752.4148211
878,75115440.41696213
2,1, 7,21, 0,15,50.00,60.00,SummerDesignDay
8,17.79999023167558
10,390930695.82178696
878,75078831.11481238
2,1, 7,21, 0,15, 0.00,60.00,SummerDesignDay
1112,23.99939679787977
1152,23.99947274468907
1192,23.999399285628838
1232,23.999365966420716
1272,23.99950040156313
1312,23.999901534042136
1352,23.999630243871655
1392,24.016216227033796
1432,23.998624337063963
1472,23.999144416020234
1512,23.999486734467128
1552,24.933790821897618
1592,23.99973229825179
1632,23.99807806043415
1672,23.999117061470427
1712,28.923360741343758
1752,23.99919151300031
1792,23.999395986438186
1832,23.999982890574345
1872,23.99944091686612
2,1, 7,21, 0,16, 0.00,10.00,SummerDesignDay
8,17.759562446305357
10,397602072.1407161
878,74034010.43364671
2,1, 7,21, 0,16,10.00,20.00,SummerDesignDay
8,17.71907809634183
10,396142454.08797618
878,92037125.59912683
2,1, 7,21, 0,16,20.00,30.00,SummerDesignDay
8,17.67853788661001
10,394674674.5894447
878,93360718.90172868
2,1, 7,21, 0,16,30.00,40.00,SummerDesignDay
8,17.63791796367351
10,393164509.0281422
878,86522593.30290634
2,1, 7,21, 0,16,40.00,50.00,SummerDesignDay
8,17.59724609886134
10,391615443.3891616
878,74013789.48761477
2,1, 7,21, 0,16,50.00,60.00,SummerDesignDay
8,17.55650676726033
10,390084036.18698659
878,73988178.08385439
2,1, 7,21, 0,16, 0.00,60.00,SummerDesignDay
1112,23.998797658017037
1152,23.999183747203188
1192,23.9987794212484
1232,23.998788838168378
1272,23.998850826218328
1312,23.99980065030636
1352,23.99931262935723
1392,24.055445086732818
1432,23.99726143902859
1472,23.998298932386175
1512,23.998999283341033
1552,23.999590097666525
1592,23.999500063474064
1632,23.99639165423329
1672,23.998708144306108
1712,28.706860634222058
1752,23.99836292609689
1792,23.998924938535209
1832,23.999911010853539
1872,23.998736460546998
2,1, 7,21, 0,17, 0.00,10.00,SummerDesignDay
8,17.50209486331892
10,375291239.05927947
878,67677403.92609452
2,1, 7,21, 0,17,10.00,20.00,SummerDesignDay
8,17.447570789624618
10,372929008.54531458
878,66861945.5157013
2,1, 7,21, 0,17,20.00,30.00,SummerDesignDay
8,17.392929544208135
10,371094148.70061877
878,66845723.99836862
2,1, 7,21, 0,17,30.00,40.00,SummerDesignDay
8,17.33818013976614
10,369268142.9782947
878,66829454.001916389
2,1, 7,21, 0,17,40.00,50.00,SummerDesignDay
8,17.283317298559309
10,367453051.83474817
878,73219067.75453323
2,1, 7,21, 0,17,50.00,60.00,SummerDesignDay
8,17.22833552437677
10,365624943.8087457
878,75790892.86694132
2,1, 7,21, 0,17, 0.00,60.00,SummerDesignDay
1112,23.998760259322649
1152,23.9994348479798
1192,23.998780145884525
1232,23.99912179792248
1272,23.998854619798466
1312,23.999776519630048
1352,23.999353122241204
1392,24.020378091781308
1432,23.997042958319097
1472,23.998220549897217
1512,23.999018595282356
1552,23.999593852254788
1592,23.999494975844344
1632,23.997387094610575
1672,23.998944583023218
1712,28.06800263918575
1752,23.998704710001595
1792,23.998962525591769
1832,23.99983654480867
1872,23.998618812555347
2,1, 7,21, 0,18, 0.00,10.00,SummerDesignDay
8,17.159453019160176
10,343891906.09467378
878,62655306.6573323
2,1, 7,21, 0,18,10.00,20.00,SummerDesignDay
8,17.090391773337136
10,341043315.80716159
878,61477646.63946722
2,1, 7,21, 0,18,20.00,30.00,SummerDesignDay
8,17.021151077964786
10,338779110.20999786
878,61482832.37953273
2,1, 7,21, 0,18,30.00,40.00,SummerDesignDay
8,16.951729380464653
10,336616044.5270723
878,61487962.49862929
2,1, 7,21, 0,18,40.00,50.00,SummerDesignDay
8,16.882126503829249
10,334530472.271236
878,61493089.29711702
2,1, 7,21, 0,18,50.00,60.00,SummerDesignDay
8,16.812341807494034
10,332508122.6914428
878,61498208.70591779
2,1, 7,21, 0,18, 0.00,60.00,SummerDesignDay
1112,23.998932350658028
1152,23.99953882453934
1192,23.998909429829824
1232,23.99947559515307
1272,23.998867279732818
1312,23.999689517433795
1352,23.999500211650866
1392,23.996132560320818
1432,23.997271206904985
1472,23.998180193907435
1512,23.999183756254863
1552,23.999673231974286
1592,23.999551833947238
1632,23.998592417688398
1672,23.99904873308753
1712,27.195747688790886
1752,23.99919902608255
1792,23.99900268882618
1832,23.999877220882199
1872,23.998710975507668
2,1, 7,21, 0,19, 0.00,10.00,SummerDesignDay
8,16.707321072823203
10,300680200.8597008
878,63623844.68053408
2,1, 7,21, 0,19,10.00,20.00,SummerDesignDay
8,16.601881826644556
10,298064717.3471245
878,60844927.580803569
2,1, 7,21, 0,19,20.00,30.00,SummerDesignDay
8,16.496030555252849
10,295765383.3346023
878,57548996.44931832
2,1, 7,21, 0,19,30.00,40.00,SummerDesignDay
8,16.389760181474104
10,293583897.421591
878,57533930.44571858
2,1, 7,21, 0,19,40.00,50.00,SummerDesignDay
8,16.283067654262039
10,291478112.2545568
878,57518126.68083307
2,1, 7,21, 0,19,50.00,60.00,SummerDesignDay
8,16.17595057957811
10,289498149.63056769
878,57502127.4751166
2,1, 7,21, 0,19, 0.00,60.00,SummerDesignDay
1112,23.999322543639946
1152,23.999470856594788
1192,23.999176844537144
1232,23.999579045235355
1272,23.999376842764169
1312,23.99964509180583
1352,23.997665799003526
1392,23.996091634258876
1432,23.997865916617046
1472,23.99814738255419
1512,23.999435133832816
1552,23.999263421259874
1592,23.999672421622948
1632,23.999118408883036
1672,23.998758241433835
1712,26.037980509837927
1752,23.99938373056479
1792,23.999037086840884
1832,23.999928296836815
1872,23.999341461771939
2,1, 7,21, 0,20, 0.00,10.00,SummerDesignDay
8,16.097123145563505
10,271059151.423918
878,59489722.87216853
2,1, 7,21, 0,20,10.00,20.00,SummerDesignDay
8,16.018070242471564
10,269551737.53017726
878,59690255.985629159
2,1, 7,21, 0,20,20.00,30.00,SummerDesignDay
8,15.938779752340516
10,268042580.77378366
878,59675664.79554041
2,1, 7,21, 0,20,30.00,40.00,SummerDesignDay
8,15.85926152575189
10,266523735.52086053
878,59660935.0055345
2,1, 7,21, 0,20,40.00,50.00,SummerDesignDay
8,15.779503718563929
10,264954726.894621
878,59646054.35529389
2,1, 7,21, 0,20,50.00,60.00,SummerDesignDay
8,15.699515709672767
10,263305725.05173055
878,61111056.09808755
2,1, 7,21, 0,20, 0.00,60.00,SummerDesignDay
1112,23.999595081454527
1152,23.999190358483174
1192,23.999517755322626
1232,23.999471925535159
1272,24.238663316190626
1312,23.99960360027752
1352,23.359969608171139
1392,23.996131534056845
1432,23.998740095656385
1472,23.998102618876265
1512,23.99965840489007
1552,23.998158386165789
1592,23.999846443072099
1632,23.998895385069589
1672,23.99834950232928
1712,24.82666201465756
1752,23.99920108935957
1792,23.998997359283167
1832,23.999954278651658
1872,23.999732626098639
2,1, 7,21, 0,21, 0.00,10.00,SummerDesignDay
8,15.63389147320404
10,258204499.4434748
878,70344727.51051381
2,1, 7,21, 0,21,10.00,20.00,SummerDesignDay
8,15.56810827419793
10,256668239.39681144
878,70865362.04447818
2,1, 7,21, 0,21,20.00,30.00,SummerDesignDay
8,15.502170882753524
10,254985709.00601096