Program Version,EnergyPlus, Version 8.9.0-eba93e8e1b, YMD=2019.03.20 18:02
1,5,Environment Title[],Latitude[deg],Longitude[deg],Time Zone[],Elevation[m]
2,8,Day of Simulation[],Month[],Day of Month[],DST Indicator[1=yes 0=no],Hour[],StartMinute[],EndMinute[],DayType
3,5,Cumulative Day of Simulation[],Month[],Day of Month[],DST Indicator[1=yes 0=no],DayType  ! When Daily Report Variables Requested
4,2,Cumulative Days of Simulation[],Month[]  ! When Monthly Report Variables Requested
5,1,Cumulative Days of Simulation[] ! When Run Period Report Variables Requested
6,1,Calendar Year of Simulation[] ! When Annual Report Variables Requested
7,9,Environment,Site Outdoor Air Drybulb Temperature [C] !Monthly [Value,Min,Day,Hour,Minute,Max,Day,Hour,Minute]
8,1,Environment,Site Outdoor Air Wetbulb Temperature [C] !TimeStep
1047,1,ALL_ST=PENITENTIARY - DINING_FL=STORY 4_SCH=B,Zone Air Temperature [C] !Hourly
1048,7,ALL_ST=PENITENTIARY - DINING_FL=STORY 4_SCH=B,Zone Air Relative Humidity [%] !Daily [Value,Min,Hour,Minute,Max,Hour,Minute]
1087,1,ALL_ST=POST OFFICE SORTING_FL=STORY 3_SCH=A,Zone Air Temperature [C] !Hourly
1088,7,ALL_ST=POST OFFICE SORTING_FL=STORY 3_SCH=A,Zone Air Relative Humidity [%] !Daily [Value,Min,Hour,Minute,Max,Hour,Minute]
1127,1,ALL_ST=RELIGIOUS - AUDIENCE_FL=STORY 3_SCH=I,Zone Air Temperature [C] !Hourly
1128,7,ALL_ST=RELIGIOUS - AUDIENCE_FL=STORY 3_SCH=I,Zone Air Relative Humidity [%] !Daily [Value,Min,Hour,Minute,Max,Hour,Minute]
1167,1,ALL_ST=RELIGIOUS - FELLOWSHIP HALL_FL=STORY 4_SCH=C,Zone Air Temperature [C] !Hourly
1168,7,ALL_ST=RELIGIOUS - FELLOWSHIP HALL_FL=STORY 4_SCH=C,Zone Air Relative Humidity [%] !Daily [Value,Min,Hour,Minute,Max,Hour,Minute]
1207,1,ALL_ST=RELIGIOUS - PULPIT/CHOIR_FL=STORY 3_SCH=I,Zone Air Temperature [C] !Hourly
1208,7,ALL_ST=RELIGIOUS - PULPIT/CHOIR_FL=STORY 3_SCH=I,Zone Air Relative Humidity [%] !Daily [Value,Min,Hour,Minute,Max,Hour,Minute]
1247,1,ALL_ST=RETAIL - DRESSING/FITTING_FL=STORY 3_SCH=C,Zone Air Temperature [C] !Hourly
1248,7,ALL_ST=RETAIL - DRESSING/FITTING_FL=STORY 3_SCH=C,Zone Air Relative Humidity [%] !Daily [Value,Min,Hour,Minute,Max,Hour,Minute]
1287,1,ALL_ST=RETAIL - MALL CONCOURSE_FL=STORY 1_SCH=C,Zone Air Temperature [C] !Hourly
1288,7,ALL_ST=RETAIL - MALL CONCOURSE_FL=STORY 1_SCH=C,Zone Air Relative Humidity [%] !Daily [Value,Min,Hour,Minute,Max,Hour,Minute]
1327,1,ALL_ST=RETAIL - SALES_FL=STORY 4_SCH=C,Zone Air Temperature [C] !Hourly
1328,7,ALL_ST=RETAIL - SALES_FL=STORY 4_SCH=C,Zone Air Relative Humidity [%] !Daily [Value,Min,Hour,Minute,Max,Hour,Minute]
1367,1,ALL_ST=SALES AREA_FL=STORY 2_SCH=C,Zone Air Temperature [C] !Hourly
1368,7,ALL_ST=SALES AREA_FL=STORY 2_SCH=C,Zone Air Relative Humidity [%] !Daily [Value,Min,Hour,Minute,Max,Hour,Minute]
1407,1,ALL_ST=SPORTS ARENA - AUDIENCE_FL=STORY 1_SCH=B,Zone Air Temperature [C] !Hourly
1408,7,ALL_ST=SPORTS ARENA - AUDIENCE_FL=STORY 1_SCH=B,Zone Air Relative Humidity [%] !Daily [Value,Min,Hour,Minute,Max,Hour,Minute]
1447,1,ALL_ST=SPORTS ARENA - COURT C1_FL=STORY 4_SCH=B,Zone Air Temperature [C] !Hourly
1448,7,ALL_ST=SPORTS ARENA - COURT C1_FL=STORY 4_SCH=B,Zone Air Relative Humidity [%] !Daily [Value,Min,Hour,Minute,Max,Hour,Minute]
1487,1,ALL_ST=SPORTS ARENA - COURT C2_FL=STORY 3_SCH=B,Zone Air Temperature [C] !Hourly
1488,7,ALL_ST=SPORTS ARENA - COURT C2_FL=STORY 3_SCH=B,Zone Air Relative Humidity [%] !Daily [Value,Min,Hour,Minute,Max,Hour,Minute]
1527,1,ALL_ST=SPORTS ARENA - COURT C3_FL=STORY 1_SCH=B,Zone Air Temperature [C] !Hourly
1528,7,ALL_ST=SPORTS ARENA - COURT C3_FL=STORY 1_SCH=B,Zone Air Relative Humidity [%] !Daily [Value,Min,Hour,Minute,Max,Hour,Minute]
1567,1,ALL_ST=SPORTS ARENA - COURT C4_FL=STORY 4_SCH=B,Zone Air Temperature [C] !Hourly
1568,7,ALL_ST=SPORTS ARENA - COURT C4_FL=STORY 4_SCH=B,Zone Air Relative Humidity [%] !Daily [Value,Min,Hour,Minute,Max,Hour,Minute]
1607,1,ALL_ST=SPORTS ARENA - RING_FL=STORY 1_SCH=B,Zone Air Temperature [C] !Hourly
1608,7,ALL_ST=SPORTS ARENA - RING_FL=STORY 1_SCH=B,Zone Air Relative Humidity [%] !Daily [Value,Min,Hour,Minute,Max,Hour,Minute]
1647,1,WILD_ST=STAIRWAY-SCH-A_FL=STORY 1_SCH=B,Zone Air Temperature [C] !Hourly
1648,7,WILD_ST=STAIRWAY-SCH-A_FL=STORY 1_SCH=B,Zone Air Relative Humidity [%] !Daily [Value,Min,Hour,Minute,Max,Hour,Minute]
1687,1,WILD_ST=STAIRWAY-SCH-B_FL=STORY 2_SCH=B,Zone Air Temperature [C] !Hourly
1688,7,WILD_ST=STAIRWAY-SCH-B_FL=STORY 2_SCH=B,Zone Air Relative Humidity [%] !Daily [Value,Min,Hour,Minute,Max,Hour,Minute]
1727,1,WILD_ST=STAIRWAY-SCH-C_FL=STORY 2_SCH=B,Zone Air Temperature [C] !Hourly
1728,7,WILD_ST=STAIRWAY-SCH-C_FL=STORY 2_SCH=B,Zone Air Relative Humidity [%] !Daily [Value,Min,Hour,Minute,Max,Hour,Minute]
1767,1,WILD_ST=STAIRWAY-SCH-D_FL=STORY 2_SCH=B,Zone Air Temperature [C] !Hourly
1768,7,WILD_ST=STAIRWAY-SCH-D_FL=STORY 2_SCH=B,Zone Air Relative Humidity [%] !Daily [Value,Min,Hour,Minute,Max,Hour,Minute]
1807,1,WILD_ST=STAIRWAY-SCH-E_FL=STORY 2_SCH=B,Zone Air Temperature [C] !Hourly
1808,7,WILD_ST=STAIRWAY-SCH-E_FL=STORY 2_SCH=B,Zone Air Relative Humidity [%] !Daily [Value,Min,Hour,Minute,Max,Hour,Minute]
10,1,Electricity:Facility [J] !TimeStep
813,1,Gas:Facility [J] !TimeStep
End of Data Dictionary
1,FORT MCMURRAY AP ANN CLG .4% CONDNS DB=>MWB,  56.65,-111.22,  -7.00, 369.10
2,1, 7,21, 0, 1, 0.00,10.00,SummerDesignDay
8,14.218136923962174
10,307099238.1738271
813,101291679.25869857
2,1, 7,21, 0, 1,10.00,20.00,SummerDesignDay
8,14.171982153293495
10,306400094.1654488
813,100995596.91660887
2,1, 7,21, 0, 1,20.00,30.00,SummerDesignDay
8,14.125744780286427
10,306294406.038303
813,115608957.174476
2,1, 7,21, 0, 1,30.00,40.00,SummerDesignDay
8,14.079436086331978
10,306139888.34704509
813,134911039.44064904
2,1, 7,21, 0, 1,40.00,50.00,SummerDesignDay
8,14.033050387896898
10,306017016.95466908
813,101051258.26995306
2,1, 7,21, 0, 1,50.00,60.00,SummerDesignDay
8,13.986581233564835
10,305878838.88760367
813,101169582.18638085
2,1, 7,21, 0, 1, 0.00,60.00,SummerDesignDay
1047,22.73383248154961
1087,24.377543134514686
1127,23.30893769332214
1167,21.2482394753202
1207,23.255159512832838
1247,23.863689500628785
1287,22.904012567748557
1327,21.24031395289384
1367,23.500994388365517
1407,22.001473854943638
1447,23.997706673359195
1487,23.997667357039217
1527,23.997665349782996
1567,23.255901683619486
1607,23.99755732332585
1647,23.99991830146816
1687,23.25980143918372
1727,23.670940837150324
1767,23.509166059436365
1807,22.488026352761425
2,1, 7,21, 0, 2, 0.00,10.00,SummerDesignDay
8,13.95555882260429
10,184045097.94049163
813,102302841.57542202
2,1, 7,21, 0, 2,10.00,20.00,SummerDesignDay
8,13.924507755336454
10,183896514.97587729
813,105764928.98338318
2,1, 7,21, 0, 2,20.00,30.00,SummerDesignDay
8,13.893416042989206
10,183714956.46797083
813,108429152.49270739
2,1, 7,21, 0, 2,30.00,40.00,SummerDesignDay
8,13.862289589689029
10,184099764.02069233
813,108917357.85890952
2,1, 7,21, 0, 2,40.00,50.00,SummerDesignDay
8,13.831134407608739
10,183931705.49627025
813,112341014.42047186
2,1, 7,21, 0, 2,50.00,60.00,SummerDesignDay
8,13.799938415548118
10,183719448.0250331
813,114038044.89540014
2,1, 7,21, 0, 2, 0.00,60.00,SummerDesignDay
1047,22.04642977372397
1087,24.297670326673669
1127,22.355169131841778
1167,20.71833303812947
1207,22.277714648831524
1247,23.658932706761033
1287,22.819547231167524
1327,21.023155685998593
1367,23.43073663051538
1407,22.000786964723024
1447,23.545315309261345
1487,24.446230736772376
1527,24.308268873349524
1567,22.318788723530145
1607,24.829256400774076
1647,24.46282646456039
1687,24.27955112221494
1727,24.450807599792243
1767,24.607961317690245
1807,23.89631875324707
2,1, 7,21, 0, 3, 0.00,10.00,SummerDesignDay
8,13.776521671948676
10,98170873.11013299
813,12000.0
2,1, 7,21, 0, 3,10.00,20.00,SummerDesignDay
8,13.753085235778466
10,98028628.71120948
813,12000.0
2,1, 7,21, 0, 3,20.00,30.00,SummerDesignDay
8,13.729636002354969
10,97759461.08687769
813,41113846.74057315
2,1, 7,21, 0, 3,30.00,40.00,SummerDesignDay
8,13.706147375533054
10,97500816.14743227
813,12000.0
2,1, 7,21, 0, 3,40.00,50.00,SummerDesignDay
8,13.682651961920304
10,97245264.36588556
813,12000.0
2,1, 7,21, 0, 3,50.00,60.00,SummerDesignDay
8,13.659136670643687
10,96980404.17101085
813,12000.0
2,1, 7,21, 0, 3, 0.00,60.00,SummerDesignDay
1047,20.749347284497849
1087,24.179205457363847
1127,21.83511295509754
1167,20.25235529260883
1207,21.748190730796329
1247,23.438671390649487
1287,22.7278047290272
1327,20.759270643011964
1367,23.355320733983804
1407,20.358442298819886
1447,21.563930645095238
1487,23.726796391443004
1527,23.70180334589865
1567,20.943270449336099
1607,24.120824482383509
1647,24.687914822517443
1687,24.74585703038638
1727,24.869819143683477
1767,25.10336879923642
1807,24.523526216591944
2,1, 7,21, 0, 4, 0.00,10.00,SummerDesignDay
8,13.63560137410855
10,96714452.55339432
813,41120337.06250768
2,1, 7,21, 0, 4,10.00,20.00,SummerDesignDay
8,13.612040802606578
10,96448127.43917285
813,12000.0
2,1, 7,21, 0, 4,20.00,30.00,SummerDesignDay
8,13.58846620506876
10,96181715.13953907
813,12000.0
2,1, 7,21, 0, 4,30.00,40.00,SummerDesignDay
8,13.56487178447336
10,95915293.43753098
813,12000.0
2,1, 7,21, 0, 4,40.00,50.00,SummerDesignDay
8,13.541257354069103
10,95648885.00365687
813,41186810.80817906
2,1, 7,21, 0, 4,50.00,60.00,SummerDesignDay
8,13.517617463812285
10,95382496.18952438
813,12000.0
2,1, 7,21, 0, 4, 0.00,60.00,SummerDesignDay
1047,19.920879741355959
1087,24.000774356077547
1127,21.473316084514538
1167,19.821868891904456
1207,21.3777848740493
1247,23.207350144927003
1287,22.620624947755628
1327,20.436719878144048
1367,23.241589560967925
1407,19.705520862243316
1447,20.379467915385275
1487,23.1132975857886
1527,23.134118343052355
1567,20.027210104548915
1607,23.422281823034653
1647,24.551860544802066
1687,24.614999758162399
1727,24.800121040105137
1767,24.973928371557066
1807,24.410283086620298
2,1, 7,21, 0, 5, 0.00,10.00,SummerDesignDay
8,13.50185415824011
10,95195786.61411162
813,12000.0
2,1, 7,21, 0, 5,10.00,20.00,SummerDesignDay
8,13.486076034032447
10,95018109.7206766
813,12000.0
2,1, 7,21, 0, 5,20.00,30.00,SummerDesignDay
8,13.470289340350983
10,94840520.39255202
813,41217943.971530858
2,1, 7,21, 0, 5,30.00,40.00,SummerDesignDay
8,13.454493322631063
10,94662964.25349012
813,12000.0
2,1, 7,21, 0, 5,40.00,50.00,SummerDesignDay
8,13.438688835118548
10,94485424.76265332
813,12000.0
2,1, 7,21, 0, 5,50.00,60.00,SummerDesignDay
8,13.422888173889437
10,94307897.35244699
813,12000.0
2,1, 7,21, 0, 5, 0.00,60.00,SummerDesignDay
1047,19.71610687695691
1087,23.807415162942193
1127,21.16005232514755
1167,19.52239789979523
1207,21.144381361118609
1247,23.001106139265599
1287,22.52882490014586
1327,20.34508497049445
1367,23.172901834054504
1407,19.562041542589129
1447,20.059176855958808
1487,22.92418310698069
1527,22.96800818360296
1567,19.692150850638936
1607,23.220795074412178
1647,24.45316924771718
1687,24.484789315640375
1727,24.724253167513934
1767,24.83044744845232
1807,24.362502673017969
2,1, 7,21, 0, 6, 0.00,10.00,SummerDesignDay
8,13.438688835118548
10,94448887.42128314
813,12000.0
2,1, 7,21, 0, 6,10.00,20.00,SummerDesignDay
8,13.454493322631063
10,94625977.8341496
813,41003165.70162882
2,1, 7,21, 0, 6,20.00,30.00,SummerDesignDay
8,13.470289340350983
10,94803380.01239828
813,12000.0
2,1, 7,21, 0, 6,30.00,40.00,SummerDesignDay
8,13.486076034032447
10,94980881.9743632
813,12000.0
2,1, 7,21, 0, 6,40.00,50.00,SummerDesignDay
8,13.50185415824011
10,95158420.24510227
813,12000.0
2,1, 7,21, 0, 6,50.00,60.00,SummerDesignDay
8,13.517617463812285
10,95335976.0591546
813,41133081.046950448
2,1, 7,21, 0, 6, 0.00,60.00,SummerDesignDay
1047,20.325129898362417
1087,23.625931602821998
1127,21.001780704180566
1167,19.547163567902577
1207,21.31191756023855
1247,22.828894648907967
1287,22.447779724446077
1327,20.648877449530294
1367,23.170850756465467
1407,19.459524420217624
1447,20.07179865603695
1487,22.84372492707702
1527,22.869206691354824
1567,19.698928233646723
1607,23.074295831448539
1647,24.402549513866608
1687,24.421398475819456
1727,24.68780686062893
1767,24.751477196757976
1807,24.65035486642317
2,1, 7,21, 0, 7, 0.00,10.00,SummerDesignDay
8,13.572736920571789
10,95911756.10227107
813,12000.0
2,1, 7,21, 0, 7,10.00,20.00,SummerDesignDay
8,13.627748229152554
10,96532770.104797
813,12000.0
2,1, 7,21, 0, 7,20.00,30.00,SummerDesignDay
8,13.682651961920304
10,97154302.04569088
813,12000.0
2,1, 7,21, 0, 7,30.00,40.00,SummerDesignDay
8,13.737448093244995
10,97776077.6172155
813,41192691.35509121
2,1, 7,21, 0, 7,40.00,50.00,SummerDesignDay
8,13.792137011831216
10,98177744.16534895
813,12000.0
2,1, 7,21, 0, 7,50.00,60.00,SummerDesignDay
8,13.846719282840333
10,98178920.41113338
813,12000.0
2,1, 7,21, 0, 7, 0.00,60.00,SummerDesignDay
1047,21.31970200467401
1087,23.46697596213868
1127,21.12530196709477
1167,20.010109976248619
1207,21.75725717555233
1247,22.687075353053485
1287,22.372169129645206
1327,20.83931641818558
1367,23.02170993023675
1407,19.371130110057675
1447,20.31416565118484
1487,22.650317893965395
1527,22.81166634382643
1567,19.95418727405801
1607,22.94099879869444
1647,24.40733324837619
1687,24.442662007562914
1727,24.713392892753377
1767,24.75913319163351
1807,25.03216868581806
2,1, 7,21, 0, 8, 0.00,10.00,SummerDesignDay
8,13.978831900527043
10,103091853.26738858
813,12000.0
2,1, 7,21, 0, 8,10.00,20.00,SummerDesignDay
8,14.110321014287419
10,103092246.53849542
813,41237938.252534199
2,1, 7,21, 0, 8,20.00,30.00,SummerDesignDay
8,14.241191509616986
10,103089903.28002408
813,12000.0
2,1, 7,21, 0, 8,30.00,40.00,SummerDesignDay
8,14.371447531304272
10,103090046.50663996
813,12000.0
2,1, 7,21, 0, 8,40.00,50.00,SummerDesignDay
8,14.501093766564925
10,103090714.39288822
813,12000.0
2,1, 7,21, 0, 8,50.00,60.00,SummerDesignDay
8,14.630134792273804
10,103091530.89207521
813,41257411.92892159
2,1, 7,21, 0, 8, 0.00,60.00,SummerDesignDay
1047,22.808349253003585
1087,23.613818617553155
1127,21.707241914214337
1167,21.176739929548949
1207,22.569857365608298
1247,22.59389030596776
1287,22.303325347365548
1327,21.38188377764295
1367,22.919659158979149
1407,19.28735509601228
1447,20.876732222700686
1487,22.523487584295109
1527,22.78839210626235
1567,20.559896672937439
1607,22.821390045046248
1647,24.473587839027159
1687,24.568385434582195
1727,24.810046136097627
1767,24.8749040312222
1807,25.421491196345646
2,1, 7,21, 0, 9, 0.00,10.00,SummerDesignDay
8,14.773641492809972
10,179990282.66198636
813,12510984.098045204
2,1, 7,21, 0, 9,10.00,20.00,SummerDesignDay
8,14.91640948124148
10,172778866.00474549
813,6038208.298251736
2,1, 7,21, 0, 9,20.00,30.00,SummerDesignDay
8,15.05843890714102
10,164972839.10899658
813,45367580.317667949
2,1, 7,21, 0, 9,30.00,40.00,SummerDesignDay
8,15.199735893563798
10,170550943.86125855
813,1932334.5508217836
2,1, 7,21, 0, 9,40.00,50.00,SummerDesignDay
8,15.340306256439395
10,172670034.33087344
813,1961888.2073197389
2,1, 7,21, 0, 9,50.00,60.00,SummerDesignDay
8,15.48015101768072
10,175863525.9704684
813,43415674.47096034
2,1, 7,21, 0, 9, 0.00,60.00,SummerDesignDay
1047,23.977498582106937
1087,23.9881460994649
1127,22.77424833537076
1167,23.321193033830004
1207,23.73637386091217
1247,22.925045783131027
1287,22.716130781714417
1327,23.279025565525385
1367,23.497145597880388
1407,19.964882832337556
1447,21.76345981589093
1487,22.480835128977295
1527,22.784692367959804
1567,21.56765818011496
1607,22.713136334954613
1647,24.007050833026488
1687,23.730649871186203
1727,24.161460771870524
1767,24.029988787803715
1807,24.519645832126526
2,1, 7,21, 0,10, 0.00,10.00,SummerDesignDay
8,15.60467292907716
10,306902093.09355607
813,114666799.90671063
2,1, 7,21, 0,10,10.00,20.00,SummerDesignDay
8,15.72862731650033
10,309774998.3235701
813,164354904.93787483
2,1, 7,21, 0,10,20.00,30.00,SummerDesignDay
8,15.852017409284228
10,313779019.34893456
813,131584546.19399736
2,1, 7,21, 0,10,30.00,40.00,SummerDesignDay
8,15.974848118364367
10,318707817.9112434
813,145247888.16532279
2,1, 7,21, 0,10,40.00,50.00,SummerDesignDay
8,16.097123145563505
10,325374169.27296826
813,163651879.98113776
2,1, 7,21, 0,10,50.00,60.00,SummerDesignDay
8,16.218846351168599
10,327435193.53453698
813,114624936.79180423
2,1, 7,21, 0,10, 0.00,60.00,SummerDesignDay
1047,23.999223411775586
1087,23.99953427019769
1127,24.08112265534969
1167,23.99954949198454
1207,24.94394719051167
1247,23.5157744633692
1287,23.419123964571786
1327,24.00003775573497
1367,23.99091528602362
1407,21.1676656894883
1447,23.74051319255503
1487,23.457076343518755
1527,23.62008687545206
1567,23.446535868453166
1607,23.718604252704837
1647,23.999969258770958
1687,23.61459985550388
1727,24.079291853375606
1767,24.001620604606456
1807,24.361782054207059
2,1, 7,21, 0,11, 0.00,10.00,SummerDesignDay
8,16.325793027093189
10,382494277.26490196
813,163748180.57141093
2,1, 7,21, 0,11,10.00,20.00,SummerDesignDay
8,16.432322158488288
10,388037464.2019767
813,164714553.74547849
2,1, 7,21, 0,11,20.00,30.00,SummerDesignDay
8,16.538424180249178
10,392035708.68196669
813,161116873.37672616
2,1, 7,21, 0,11,30.00,40.00,SummerDesignDay
8,16.644108396469087
10,395960823.2717887
813,115635842.95737896
2,1, 7,21, 0,11,40.00,50.00,SummerDesignDay
8,16.749376736593655
10,399871586.0647341
813,163917959.70130594
2,1, 7,21, 0,11,50.00,60.00,SummerDesignDay
8,16.854232613237156
10,403509079.04662349
813,163709741.93891055
2,1, 7,21, 0,11, 0.00,60.00,SummerDesignDay
1047,23.998253647221799
1087,23.999013094789509
1127,25.52091151019381
1167,23.99861057458581
1207,25.986392510735855
1247,23.94611224147046
1287,23.919394797108116
1327,23.999969616526206
1367,23.999857952589026
1407,21.984286281553059
1447,23.997935286705127
1487,23.997869387246998
1527,23.998372412663458
1567,23.998042528119386
1607,23.9980370887447
1647,23.99993280332743
1687,23.377244375851885
1727,23.911877697487339
1767,23.98414455466627
1807,23.816093120040354
2,1, 7,21, 0,12, 0.00,10.00,SummerDesignDay
8,16.92390823520069
10,466232045.3338846
813,99430322.84667252
2,1, 7,21, 0,12,10.00,20.00,SummerDesignDay
8,16.99340178950456
10,468465669.8866806
813,98255914.64261124
2,1, 7,21, 0,12,20.00,30.00,SummerDesignDay
8,17.06272006743463
10,471728079.89847359
813,90714274.13211553
2,1, 7,21, 0,12,30.00,40.00,SummerDesignDay
8,17.131853229172639
10,474794693.9796776
813,60067489.900189477
2,1, 7,21, 0,12,40.00,50.00,SummerDesignDay
8,17.200807172194087
10,477786747.4151585
813,96968803.70003933
2,1, 7,21, 0,12,50.00,60.00,SummerDesignDay
8,17.269582116758607
10,480718545.7893888
813,97865772.01633424
2,1, 7,21, 0,12, 0.00,60.00,SummerDesignDay
1047,23.998182970195406
1087,23.99879737293287
1127,26.693726396572044
1167,23.99803551533475
1207,26.861224103693318
1247,23.999793703855774
1287,23.99971286384485
1327,23.99961476366721
1367,23.999760821011497
1407,22.001067250395808
1447,23.997249406763044
1487,23.997255890111096
1527,23.99731542839785
1567,23.997335713678046
1607,23.99713045067612
1647,23.999919426379589
1687,23.17684591003386
1727,23.766990458559119
1767,24.03134506224704
1807,23.267434031145247
2,1, 7,21, 0,13, 0.00,10.00,SummerDesignDay
8,17.32447360221357
10,500890842.60418829
813,131801267.25246094
2,1, 7,21, 0,13,10.00,20.00,SummerDesignDay
8,17.379251291230806
10,505384541.3072588
813,116928755.22448568
2,1, 7,21, 0,13,20.00,30.00,SummerDesignDay
8,17.433921312061729
10,508532225.27038916
813,99955969.62431374
2,1, 7,21, 0,13,30.00,40.00,SummerDesignDay
8,17.488473222557489
10,511463428.5799056
813,148644741.76225946
2,1, 7,21, 0,13,40.00,50.00,SummerDesignDay
8,17.542913447755134
10,514162923.17035248
813,99690297.9378703
2,1, 7,21, 0,13,50.00,60.00,SummerDesignDay
8,17.59724609886134
10,516648583.71504768
813,99632525.23057053
2,1, 7,21, 0,13, 0.00,60.00,SummerDesignDay
1047,23.997573363649953
1087,23.998934808037814
1127,27.56724761663109
1167,23.997113014703389
1207,27.650220020858254
1247,23.999754818236345
1287,23.999563557890885
1327,23.99951465662887
1367,23.999663010054705
1407,22.00119539383543
1447,23.996803050836986
1487,23.99667783619203
1527,23.996407433248213
1567,23.996860951002405
1607,23.996553016341893
1647,23.999926186660735
1687,23.098349040008754
1727,23.695231667607545
1767,24.135558481395277
1807,23.056202837452238
2,1, 7,21, 0,14, 0.00,10.00,SummerDesignDay
8,17.6311450462694
10,513600561.5567131
813,154203398.42079703
2,1, 7,21, 0,14,10.00,20.00,SummerDesignDay
8,17.665000449016245
10,516270093.05697128
813,144322556.54048119
2,1, 7,21, 0,14,20.00,30.00,SummerDesignDay
8,17.698812743128934
10,517595744.676419
813,114429366.61758015
2,1, 7,21, 0,14,30.00,40.00,SummerDesignDay
8,17.732582050940107
10,519107848.8704859
813,154541483.187571
2,1, 7,21, 0,14,40.00,50.00,SummerDesignDay
8,17.766307345121004
10,520476264.83937606
813,121890169.71655125
2,1, 7,21, 0,14,50.00,60.00,SummerDesignDay
8,17.79999023167558
10,521763387.8345374
813,136330360.88416223
2,1, 7,21, 0,14, 0.00,60.00,SummerDesignDay
1047,23.99692084775406
1087,23.998928160418499
1127,28.230171398744259
1167,23.996090316976568
1207,28.20810086716541
1247,23.999574639083109
1287,23.99942603125739
1327,23.99955893496887
1367,23.999559322570837
1407,22.001332256095453
1447,23.996575358759129
1487,23.99625163767874
1527,23.996242320297303
1567,23.996686400501429
1607,23.996240162547268
1647,23.99993873394665
1687,23.12676944306548
1727,23.677343213112534
1767,24.209495186705458
1807,23.007234080733129
2,1, 7,21, 0,15, 0.00,10.00,SummerDesignDay
8,17.79999023167558
10,546021817.6892712
813,154424912.63101445
2,1, 7,21, 0,15,10.00,20.00,SummerDesignDay
8,17.79999023167558
10,539204097.3181187
813,104004718.25171823
2,1, 7,21, 0,15,20.00,30.00,SummerDesignDay
8,17.79999023167558
10,533893725.6902817
813,154387545.51270206
2,1, 7,21, 0,15,30.00,40.00,SummerDesignDay
8,17.79999023167558
10,532736534.125869
813,154280379.3390451
2,1, 7,21, 0,15,40.00,50.00,SummerDesignDay
8,17.79999023167558
10,532500863.32564708
813,103824664.39633712
2,1, 7,21, 0,15,50.00,60.00,SummerDesignDay
8,17.79999023167558
10,531665060.41986516
813,154193961.6427982
2,1, 7,21, 0,15, 0.00,60.00,SummerDesignDay
1047,23.998171943277304
1087,23.999133528934867
1127,24.270936838644876
1167,23.996917259891125
1207,24.26069514908322
1247,23.99960047475231
1287,23.9995323185538
1327,23.99975563097635
1367,23.999653217420897
1407,22.001546868110027
1447,23.99804450857424
1487,23.997669212666627
1527,23.997731433628485
1567,23.99812593803775
1607,23.997675935636804
1647,23.999965227756218
1687,23.40011011891424
1727,23.68683317524844
1767,24.1844648360822
1807,23.005738896267208
2,1, 7,21, 0,16, 0.00,10.00,SummerDesignDay
8,17.759562446305357
10,539043738.1030953
813,102860151.8473116
2,1, 7,21, 0,16,10.00,20.00,SummerDesignDay
8,17.71907809634183
10,534825841.0686555
813,103071233.78138848
2,1, 7,21, 0,16,20.00,30.00,SummerDesignDay
8,17.67853788661001
10,532515723.72239139
813,103022602.64286077
2,1, 7,21, 0,16,30.00,40.00,SummerDesignDay
8,17.63791796367351
10,530237987.93475577
813,103022753.81165909
2,1, 7,21, 0,16,40.00,50.00,SummerDesignDay
8,17.59724609886134
10,527963958.9877058
813,102945039.39910475
2,1, 7,21, 0,16,50.00,60.00,SummerDesignDay
8,17.55650676726033
10,525683761.1211186
813,116621936.81154445
2,1, 7,21, 0,16, 0.00,60.00,SummerDesignDay
1047,23.99826855000515
1087,23.99873214842422
1127,23.99985852487694
1167,23.995380526869984
1207,23.999864866065509
1247,23.99943755799558
1287,23.999311926593895
1327,23.999713973423554
1367,23.99950712630988
1407,22.001485166769354
1447,23.9981120336333
1487,23.997631723462808
1527,23.99771753169934
1567,23.99822338898724
1607,23.9976117360229
1647,23.999955220563323
1687,23.882828133878218
1727,23.71166831952201
1767,24.053202204598809
1807,22.995431037151083
2,1, 7,21, 0,17, 0.00,10.00,SummerDesignDay
8,17.50209486331892
10,523746191.7208833
813,86140354.89692143
2,1, 7,21, 0,17,10.00,20.00,SummerDesignDay
8,17.447570789624618
10,519879877.66773179
813,99146593.82637432
2,1, 7,21, 0,17,20.00,30.00,SummerDesignDay
8,17.392929544208135
10,517149617.0174061
813,53518505.342181909
2,1, 7,21, 0,17,30.00,40.00,SummerDesignDay
8,17.33818013976614
10,514481890.17721536
813,99048934.79315022
2,1, 7,21, 0,17,40.00,50.00,SummerDesignDay
8,17.283317298559309
10,511828050.9583121
813,98900406.0354108
2,1, 7,21, 0,17,50.00,60.00,SummerDesignDay
8,17.22833552437677
10,509129138.6928466
813,53471289.2621667
2,1, 7,21, 0,17, 0.00,60.00,SummerDesignDay
1047,23.99902258323719
1087,23.998741875654149
1127,23.999795127096279
1167,23.995245780080287
1207,23.999802156082269
1247,23.999451743082046
1287,23.999262384938608
1327,23.99969007670012
1367,23.999496315990048
1407,22.001033152837296
1447,23.998734391753819
1487,23.998277792196899
1527,23.99814327340177
1567,23.998809442545509
1607,23.99827143824334
1647,23.9999489904711
1687,24.206557127285249
1727,23.72871637065907
1767,23.914719005053695
1807,22.94757931913411
2,1, 7,21, 0,18, 0.00,10.00,SummerDesignDay
8,17.159453019160176
10,506118029.93677666
813,96421204.45328446
2,1, 7,21, 0,18,10.00,20.00,SummerDesignDay
8,17.090391773337136
10,502787906.14970269
813,51152601.201953779
2,1, 7,21, 0,18,20.00,30.00,SummerDesignDay
8,17.021151077964786
10,499411417.69436308
813,96084206.68258754
2,1, 7,21, 0,18,30.00,40.00,SummerDesignDay
8,16.951729380464653
10,496348030.16308596
813,50973327.420520979
2,1, 7,21, 0,18,40.00,50.00,SummerDesignDay
8,16.882126503829249
10,493319652.36560156
813,96004132.43832447
2,1, 7,21, 0,18,50.00,60.00,SummerDesignDay
8,16.812341807494034
10,490323321.7721195
813,50969269.0274193
2,1, 7,21, 0,18, 0.00,60.00,SummerDesignDay
1047,23.999074635079848
1087,23.998952299250147
1127,23.999688535125157
1167,23.99597288224126
1207,23.99969601692861
1247,23.999525404805146
1287,23.99928630990487
1327,23.999740518975448
1367,23.999524953207439
1407,22.000972852139446
1447,23.998780630627708
1487,23.998429735258044
1527,23.998226405286034
1567,23.998880496780616
1607,23.998401003663603
1647,23.999934505015067
1687,24.377526698461837
1727,23.73437622061115
1767,23.828403878976294
1807,22.87437510931864
2,1, 7,21, 0,19, 0.00,10.00,SummerDesignDay
8,16.707321072823203
10,498872063.6465957
813,93339493.51990164
2,1, 7,21, 0,19,10.00,20.00,SummerDesignDay
8,16.601881826644556
10,496039010.41958627
813,92883701.90337709
2,1, 7,21, 0,19,20.00,30.00,SummerDesignDay
8,16.496030555252849
10,492170593.031352
813,92814691.77689064
2,1, 7,21, 0,19,30.00,40.00,SummerDesignDay
8,16.389760181474104
10,488314783.3387033
813,92756204.89230828
2,1, 7,21, 0,19,40.00,50.00,SummerDesignDay
8,16.283067654262039
10,484458363.82506737
813,46490925.853852089
2,1, 7,21, 0,19,50.00,60.00,SummerDesignDay
8,16.17595057957811
10,480602704.6961199
813,92627320.67246783
2,1, 7,21, 0,19, 0.00,60.00,SummerDesignDay
1047,23.998828298696613
1087,23.999374043356924
1127,23.99906980266988
1167,23.997382206271756
1207,23.999087849400678
1247,23.99967442969218
1287,23.99938730598838
1327,23.999763179005908
1367,23.999602601777839
1407,22.00057548562233
1447,23.998090233642839
1487,23.99789057871834
1527,23.997643859004069
1567,23.99828454111039
1607,23.997802934461217
1647,23.999907477547013
1687,24.37543029497354
1727,23.726045709561324
1767,23.742233293586098
1807,22.771556174057733
2,1, 7,21, 0,20, 0.00,10.00,SummerDesignDay
8,16.097123145563505
10,452000220.77377006
813,95183195.28366252
2,1, 7,21, 0,20,10.00,20.00,SummerDesignDay
8,16.018070242471564
10,449744613.1698626
813,105692037.3870475
2,1, 7,21, 0,20,20.00,30.00,SummerDesignDay
8,15.938779752340516
10,446727082.4317002
813,133087107.28310478
2,1, 7,21, 0,20,30.00,40.00,SummerDesignDay
8,15.85926152575189
10,443629766.11231127
813,95429877.33473027
2,1, 7,21, 0,20,40.00,50.00,SummerDesignDay
8,15.779503718563929
10,440394019.84887257
813,95449920.15227498
2,1, 7,21, 0,20,50.00,60.00,SummerDesignDay
8,15.699515709672767
10,436971705.742023
813,95473557.48498999
2,1, 7,21, 0,20, 0.00,60.00,SummerDesignDay
1047,23.99840815556264
1087,23.999641094469259
1127,23.99754969498116
1167,23.99878998748916
1207,23.997588593694549
1247,23.9998121003887
1287,23.999593989381724
1327,23.99987137257557
1367,23.999740113841268
1407,22.0308663405641
1447,23.9970591879074
1487,23.9968186032862
1527,23.996584125225014
1567,23.997282296849197
1607,23.996706551234909
1647,23.999876879881218
1687,24.170098206860016
1727,23.704375224572656
1767,23.655892422041359
1807,22.66344350780287
2,1, 7,21, 0,21, 0.00,10.00,SummerDesignDay
8,15.63389147320404
10,424166428.3858381
813,156425787.88187758
2,1, 7,21, 0,21,10.00,20.00,SummerDesignDay
8,15.56810827419793
10,422826830.4861581
813,158028312.46224649
2,1, 7,21, 0,21,20.00,30.00,SummerDesignDay
8,15.502170882753524
10,419268136.10115417
813,158023849.90057234
2,1, 7,21, 0,21,30.00,40.00,SummerDesignDay
8,15.436068032613852
10,415797470.7202984
813,158019251.03732334
2,1, 7,21, 0,21,40.00,50.00,SummerDesignDay
8,15.369804371206009
10,412708725.20072516
813,158014652.36264137
2,1, 7,21, 0,21,50.00,60.00,SummerDesignDay
8,15.303384603594449
10,409548709.585061
813,158010059.61509768
2,1, 7,21, 0,21, 0.00,60.00,SummerDesignDay
1047,23.99816972743956
1087,23.999767720827717
1127,23.99688036638428
1167,23.999432303024937
1207,23.996930324761036
1247,23.999889573442017
1287,23.999674771404686
1327,23.979092212698605
1367,23.99980454808527
1407,22.109697026339899
1447,23.99646133808518
1487,23.996267161804309
1527,23.99601406496065
1567,23.996747125870916
1607,23.99605397251157
1647,23.999865736954189
1687,23.787348017523784
1727,23.682591854496079
1767,23.590018148138954
1807,22.585132017264159
2,1, 7,21, 0,22, 0.00,10.00,SummerDesignDay
8,15.236797685071274
10,359309219.67859908
813,157091795.50906048
2,1, 7,21, 0,22,10.00,20.00,SummerDesignDay
8,15.170047891787942
10,357248458.7258293
813,157013018.69474084
2,1, 7,21, 0,22,20.00,30.00,SummerDesignDay
8,15.103134826860483
10,355441774.6481304
813,149067721.2131152
2,1, 7,21, 0,22,30.00,40.00,SummerDesignDay
8,15.036063385178485
10,353739671.12958839
813,139574404.81564025
2,1, 7,21, 0,22,40.00,50.00,SummerDesignDay