Program Version,EnergyPlus, Version 8.9.0-eba93e8e1b, YMD=2019.03.19 18:42
1,5,Environment Title[],Latitude[deg],Longitude[deg],Time Zone[],Elevation[m]
2,8,Day of Simulation[],Month[],Day of Month[],DST Indicator[1=yes 0=no],Hour[],StartMinute[],EndMinute[],DayType
3,5,Cumulative Day of Simulation[],Month[],Day of Month[],DST Indicator[1=yes 0=no],DayType  ! When Daily Report Variables Requested
4,2,Cumulative Days of Simulation[],Month[]  ! When Monthly Report Variables Requested
5,1,Cumulative Days of Simulation[] ! When Run Period Report Variables Requested
6,1,Calendar Year of Simulation[] ! When Annual Report Variables Requested
7,9,Environment,Site Outdoor Air Drybulb Temperature [C] !Monthly [Value,Min,Day,Hour,Minute,Max,Day,Hour,Minute]
8,1,Environment,Site Outdoor Air Wetbulb Temperature [C] !TimeStep
969,1,ALL_ST=MFG - DETAILED_FL=STORY 2_SCH=A,Zone Air Temperature [C] !Hourly
970,7,ALL_ST=MFG - DETAILED_FL=STORY 2_SCH=A,Zone Air Relative Humidity [%] !Daily [Value,Min,Hour,Minute,Max,Hour,Minute]
1009,1,ALL_ST=MFG - EQUIPMENT_FL=STORY 3_SCH=A,Zone Air Temperature [C] !Hourly
1010,7,ALL_ST=MFG - EQUIPMENT_FL=STORY 3_SCH=A,Zone Air Relative Humidity [%] !Daily [Value,Min,Hour,Minute,Max,Hour,Minute]
1049,1,ALL_ST=MUSEUM - EXHIBITION_FL=STORY 1_SCH=C,Zone Air Temperature [C] !Hourly
1050,7,ALL_ST=MUSEUM - EXHIBITION_FL=STORY 1_SCH=C,Zone Air Relative Humidity [%] !Daily [Value,Min,Hour,Minute,Max,Hour,Minute]
1089,1,ALL_ST=MUSEUM - RESTORATION_FL=STORY 2_SCH=A,Zone Air Temperature [C] !Hourly
1090,7,ALL_ST=MUSEUM - RESTORATION_FL=STORY 2_SCH=A,Zone Air Relative Humidity [%] !Daily [Value,Min,Hour,Minute,Max,Hour,Minute]
1129,1,ALL_ST=OFFICE - ENCLOSED - OCCSENS_FL=STORY 2_SCH=A,Zone Air Temperature [C] !Hourly
1130,7,ALL_ST=OFFICE - ENCLOSED - OCCSENS_FL=STORY 2_SCH=A,Zone Air Relative Humidity [%] !Daily [Value,Min,Hour,Minute,Max,Hour,Minute]
1169,1,ALL_ST=OFFICE - ENCLOSED_FL=STORY 1_SCH=A,Zone Air Temperature [C] !Hourly
1170,7,ALL_ST=OFFICE - ENCLOSED_FL=STORY 1_SCH=A,Zone Air Relative Humidity [%] !Daily [Value,Min,Hour,Minute,Max,Hour,Minute]
1209,1,ALL_ST=OFFICE - OPEN PLAN_FL=STORY 4_SCH=A,Zone Air Temperature [C] !Hourly
1210,7,ALL_ST=OFFICE - OPEN PLAN_FL=STORY 4_SCH=A,Zone Air Relative Humidity [%] !Daily [Value,Min,Hour,Minute,Max,Hour,Minute]
1249,1,ALL_ST=PARKING GARAGE SPACE_FL=STORY 4_SCH=H,Zone Air Temperature [C] !Hourly
1250,7,ALL_ST=PARKING GARAGE SPACE_FL=STORY 4_SCH=H,Zone Air Relative Humidity [%] !Daily [Value,Min,Hour,Minute,Max,Hour,Minute]
1289,1,ALL_ST=PENITENTIARY - AUDIENCE_FL=STORY 1_SCH=C,Zone Air Temperature [C] !Hourly
1290,7,ALL_ST=PENITENTIARY - AUDIENCE_FL=STORY 1_SCH=C,Zone Air Relative Humidity [%] !Daily [Value,Min,Hour,Minute,Max,Hour,Minute]
1329,1,ALL_ST=PENITENTIARY - CLASSROOM_FL=STORY 2_SCH=D,Zone Air Temperature [C] !Hourly
1330,7,ALL_ST=PENITENTIARY - CLASSROOM_FL=STORY 2_SCH=D,Zone Air Relative Humidity [%] !Daily [Value,Min,Hour,Minute,Max,Hour,Minute]
1369,1,WILD_ST=MFG - CORR. < 2.4M-SCH-I_FL=STORY 4_SCH=A,Zone Air Temperature [C] !Hourly
1370,7,WILD_ST=MFG - CORR. < 2.4M-SCH-I_FL=STORY 4_SCH=A,Zone Air Relative Humidity [%] !Daily [Value,Min,Hour,Minute,Max,Hour,Minute]
1409,1,WILD_ST=MFG - CORR. >= 2.4M-SCH-A_FL=STORY 4_SCH=A,Zone Air Temperature [C] !Hourly
1410,7,WILD_ST=MFG - CORR. >= 2.4M-SCH-A_FL=STORY 4_SCH=A,Zone Air Relative Humidity [%] !Daily [Value,Min,Hour,Minute,Max,Hour,Minute]
1449,1,WILD_ST=MFG - CORR. >= 2.4M-SCH-B_FL=STORY 4_SCH=A,Zone Air Temperature [C] !Hourly
1450,7,WILD_ST=MFG - CORR. >= 2.4M-SCH-B_FL=STORY 4_SCH=A,Zone Air Relative Humidity [%] !Daily [Value,Min,Hour,Minute,Max,Hour,Minute]
1489,1,WILD_ST=MFG - CORR. >= 2.4M-SCH-C_FL=STORY 3_SCH=A,Zone Air Temperature [C] !Hourly
1490,7,WILD_ST=MFG - CORR. >= 2.4M-SCH-C_FL=STORY 3_SCH=A,Zone Air Relative Humidity [%] !Daily [Value,Min,Hour,Minute,Max,Hour,Minute]
1529,1,WILD_ST=MFG - CORR. >= 2.4M-SCH-D_FL=STORY 3_SCH=A,Zone Air Temperature [C] !Hourly
1530,7,WILD_ST=MFG - CORR. >= 2.4M-SCH-D_FL=STORY 3_SCH=A,Zone Air Relative Humidity [%] !Daily [Value,Min,Hour,Minute,Max,Hour,Minute]
1569,1,WILD_ST=MFG - CORR. >= 2.4M-SCH-E_FL=STORY 3_SCH=A,Zone Air Temperature [C] !Hourly
1570,7,WILD_ST=MFG - CORR. >= 2.4M-SCH-E_FL=STORY 3_SCH=A,Zone Air Relative Humidity [%] !Daily [Value,Min,Hour,Minute,Max,Hour,Minute]
1609,1,WILD_ST=MFG - CORR. >= 2.4M-SCH-F_FL=STORY 3_SCH=A,Zone Air Temperature [C] !Hourly
1610,7,WILD_ST=MFG - CORR. >= 2.4M-SCH-F_FL=STORY 3_SCH=A,Zone Air Relative Humidity [%] !Daily [Value,Min,Hour,Minute,Max,Hour,Minute]
1649,1,WILD_ST=MFG - CORR. >= 2.4M-SCH-G_FL=STORY 1_SCH=A,Zone Air Temperature [C] !Hourly
1650,7,WILD_ST=MFG - CORR. >= 2.4M-SCH-G_FL=STORY 1_SCH=A,Zone Air Relative Humidity [%] !Daily [Value,Min,Hour,Minute,Max,Hour,Minute]
1689,1,WILD_ST=MFG - CORR. >= 2.4M-SCH-H_FL=STORY 2_SCH=A,Zone Air Temperature [C] !Hourly
1690,7,WILD_ST=MFG - CORR. >= 2.4M-SCH-H_FL=STORY 2_SCH=A,Zone Air Relative Humidity [%] !Daily [Value,Min,Hour,Minute,Max,Hour,Minute]
1729,1,WILD_ST=MFG - CORR. >= 2.4M-SCH-I_FL=STORY 1_SCH=A,Zone Air Temperature [C] !Hourly
1730,7,WILD_ST=MFG - CORR. >= 2.4M-SCH-I_FL=STORY 1_SCH=A,Zone Air Relative Humidity [%] !Daily [Value,Min,Hour,Minute,Max,Hour,Minute]
10,1,Electricity:Facility [J] !TimeStep
735,1,Gas:Facility [J] !TimeStep
End of Data Dictionary
1,FORT MCMURRAY AP ANN CLG .4% CONDNS DB=>MWB,  56.65,-111.22,  -7.00, 369.10
2,1, 7,21, 0, 1, 0.00,10.00,SummerDesignDay
8,14.218136923962174
10,48199694.14037352
735,5365128.035011972
2,1, 7,21, 0, 1,10.00,20.00,SummerDesignDay
8,14.171982153293495
10,48199666.82230232
735,6112251.835272701
2,1, 7,21, 0, 1,20.00,30.00,SummerDesignDay
8,14.125744780286427
10,48199640.28574303
735,6850769.980311425
2,1, 7,21, 0, 1,30.00,40.00,SummerDesignDay
8,14.079436086331978
10,48199613.994255159
735,7583288.489690568
2,1, 7,21, 0, 1,40.00,50.00,SummerDesignDay
8,14.033050387896898
10,48199587.78564515
735,18209743.94492263
2,1, 7,21, 0, 1,50.00,60.00,SummerDesignDay
8,13.986581233564835
10,48199561.61017315
735,19988251.429581677
2,1, 7,21, 0, 1, 0.00,60.00,SummerDesignDay
969,22.42139949653193
1009,24.538846284128707
1049,20.90935137162674
1089,23.49844100934268
1129,23.025777254533936
1169,23.370867056861937
1209,20.57189538574562
1249,21.999997980145229
1289,22.10117409634279
1329,22.288922366674958
1369,21.250586887612383
1409,21.375995855375995
1449,21.839253999381297
1489,23.019662268564259
1529,23.582287536935028
1569,23.464703179498696
1609,22.928536952855553
1649,22.139403703986
1689,22.66003584101667
1729,22.560171813569246
2,1, 7,21, 0, 2, 0.00,10.00,SummerDesignDay
8,13.95555882260429
10,48198845.12310633
735,12000.0
2,1, 7,21, 0, 2,10.00,20.00,SummerDesignDay
8,13.924507755336454
10,48198630.50381282
735,12000.0
2,1, 7,21, 0, 2,20.00,30.00,SummerDesignDay
8,13.893416042989206
10,48199351.21434004
735,12000.0
2,1, 7,21, 0, 2,30.00,40.00,SummerDesignDay
8,13.862289589689029
10,48199432.151276599
735,247509.5239532981
2,1, 7,21, 0, 2,40.00,50.00,SummerDesignDay
8,13.831134407608739
10,48199449.04390779
735,20442537.705892728
2,1, 7,21, 0, 2,50.00,60.00,SummerDesignDay
8,13.799938415548118
10,48199441.28784389
735,12000.0
2,1, 7,21, 0, 2, 0.00,60.00,SummerDesignDay
969,22.165898065653495
1009,24.165357994394939
1049,20.49443695092609
1089,23.155527666178945
1129,22.90800702855599
1169,23.25944895654936
1209,20.35138354243114
1249,21.01242402046405
1289,21.7557611242686
1329,21.901049709997158
1369,20.76900458326512
1409,20.929856932496457
1449,21.351674175464838
1489,22.724377203349989
1529,23.254990156922003
1569,23.1315299630128
1609,22.63766865788682
1649,21.903270418025647
1689,22.40917057402315
1729,22.318676844631797
2,1, 7,21, 0, 3, 0.00,10.00,SummerDesignDay
8,13.776521671948676
10,48199426.71199413
735,12000.0
2,1, 7,21, 0, 3,10.00,20.00,SummerDesignDay
8,13.753085235778466
10,48199413.3988491
735,12000.0
2,1, 7,21, 0, 3,20.00,30.00,SummerDesignDay
8,13.729636002354969
10,48199400.27092133
735,12000.0
2,1, 7,21, 0, 3,30.00,40.00,SummerDesignDay
8,13.706147375533054
10,48199387.21187787
735,20765518.60795071
2,1, 7,21, 0, 3,40.00,50.00,SummerDesignDay
8,13.682651961920304
10,48199374.16781027
735,12000.0
2,1, 7,21, 0, 3,50.00,60.00,SummerDesignDay
8,13.659136670643687
10,48199361.13539146
735,12000.0
2,1, 7,21, 0, 3, 0.00,60.00,SummerDesignDay
969,21.954030152344076
1009,23.834311352592157
1049,20.171347184370153
1089,22.870246406561539
1129,22.786406754738296
1169,23.141571848190183
1209,20.143593276746196
1249,20.418475738130146
1289,21.473481297750629
1329,21.589233352968166
1369,20.380160197262929
1409,20.567453042477525
1449,20.951795088331936
1489,22.46423620786607
1529,22.9583171988896
1569,22.834355367636119
1609,22.37900474380847
1649,21.70783441122261
1689,22.191095137416459
1729,22.116976593783759
2,1, 7,21, 0, 4, 0.00,10.00,SummerDesignDay
8,13.63560137410855
10,48199348.10858036
735,12000.0
2,1, 7,21, 0, 4,10.00,20.00,SummerDesignDay
8,13.612040802606578
10,48199335.08588128
735,12000.0
2,1, 7,21, 0, 4,20.00,30.00,SummerDesignDay
8,13.58846620506876
10,48199322.06495348
735,20854514.682654304
2,1, 7,21, 0, 4,30.00,40.00,SummerDesignDay
8,13.56487178447336
10,48199309.04902388
735,12000.0
2,1, 7,21, 0, 4,40.00,50.00,SummerDesignDay
8,13.541257354069103
10,48199296.03733857
735,12000.0
2,1, 7,21, 0, 4,50.00,60.00,SummerDesignDay
8,13.517617463812285
10,48199283.028968188
735,12000.0
2,1, 7,21, 0, 4, 0.00,60.00,SummerDesignDay
969,21.766817194920038
1009,23.53000213365949
1049,19.891180118732654
1089,22.61275352877266
1129,22.665635538608414
1169,23.025164234328839
1209,19.956950395301765
1249,20.063855644479394
1289,21.225308657091867
1329,21.313189852050063
1369,20.04775607362401
1409,20.25973443598154
1449,20.607880191982507
1489,22.230776517761816
1529,22.680686696294015
1569,22.56382675613658
1609,22.14356251058086
1649,21.539673101570018
1689,21.993617028039265
1729,21.94200063966331
2,1, 7,21, 0, 5, 0.00,10.00,SummerDesignDay
8,13.50185415824011
10,48199270.0223673
735,12000.0
2,1, 7,21, 0, 5,10.00,20.00,SummerDesignDay
8,13.486076034032447
10,48199260.27085432
735,20943485.95509062
2,1, 7,21, 0, 5,20.00,30.00,SummerDesignDay
8,13.470289340350983
10,48199251.27870742
735,12000.0
2,1, 7,21, 0, 5,30.00,40.00,SummerDesignDay
8,13.454493322631063
10,48199242.5194194
735,12000.0
2,1, 7,21, 0, 5,40.00,50.00,SummerDesignDay
8,13.438688835118548
10,48199233.828546348
735,12000.0
2,1, 7,21, 0, 5,50.00,60.00,SummerDesignDay
8,13.422888173889437
10,48199225.15867825
735,12000.0
2,1, 7,21, 0, 5, 0.00,60.00,SummerDesignDay
969,21.5917330470606
1009,23.24641874469251
1049,19.641420396880315
1089,22.37514173741617
1129,22.654036707839397
1169,22.907803521193313
1209,19.83784335604039
1249,19.81282776719478
1289,20.996965571419897
1329,21.06647230472704
1369,19.9679194266637
1409,20.14490399587088
1449,20.35445571745518
1489,22.01251263057905
1529,22.422672447027194
1569,22.41213559379877
1609,21.982680399354284
1649,21.384464317874945
1689,21.867044331780268
1729,21.780718851025026
2,1, 7,21, 0, 6, 0.00,10.00,SummerDesignDay
8,13.438688835118548
10,48199216.50085524
735,21036253.60644852
2,1, 7,21, 0, 6,10.00,20.00,SummerDesignDay
8,13.454493322631063
10,48199220.82038184
735,12000.0
2,1, 7,21, 0, 6,20.00,30.00,SummerDesignDay
8,13.470289340350983
10,48199228.179812479
735,12000.0
2,1, 7,21, 0, 6,30.00,40.00,SummerDesignDay
8,13.486076034032447
10,48199236.46647834
735,12000.0
2,1, 7,21, 0, 6,40.00,50.00,SummerDesignDay
8,13.50185415824011
10,48199245.02113807
735,12000.0
2,1, 7,21, 0, 6,50.00,60.00,SummerDesignDay
8,13.517617463812285
10,48199253.65504895
735,20999578.184638248
2,1, 7,21, 0, 6, 0.00,60.00,SummerDesignDay
969,21.49659656033346
1009,23.056863014871586
1049,19.5476710513415
1089,22.236363465647718
1129,23.038714119824865
1169,22.79063698548745
1209,19.93785651392999
1249,19.872713839530584
1289,20.875570131210478
1329,20.95845492931805
1369,20.672917865765638
1409,20.413065558954018
1449,20.407489044618506
1489,21.882031875006576
1529,22.269832386835664
1569,22.694626186723345
1609,21.96107291324545
1649,21.30819888259069
1689,21.867311353613446
1729,21.70822852671304
2,1, 7,21, 0, 7, 0.00,10.00,SummerDesignDay
8,13.572736920571789
10,48199262.31066445
735,129748.28628670267
2,1, 7,21, 0, 7,10.00,20.00,SummerDesignDay
8,13.627748229152554
10,48199287.22900805
735,12000.0
2,1, 7,21, 0, 7,20.00,30.00,SummerDesignDay
8,13.682651961920304
10,48199315.96388369
735,12000.0
2,1, 7,21, 0, 7,30.00,40.00,SummerDesignDay
8,13.737448093244995
10,48199345.87445988
735,12000.0
2,1, 7,21, 0, 7,40.00,50.00,SummerDesignDay
8,13.792137011831216
10,48199376.13778705
735,9744711.083281838
2,1, 7,21, 0, 7,50.00,60.00,SummerDesignDay
8,13.846719282840333
10,48199406.51727888
735,11126293.286152723
2,1, 7,21, 0, 7, 0.00,60.00,SummerDesignDay
969,21.560973518359746
1009,23.038073083946814
1049,19.754640256687414
1089,22.28141241978008
1129,23.46616544714294
1169,22.677957573127175
1209,20.266378694282257
1249,20.356630373357686
1289,20.97395093501221
1329,21.099381618157627
1369,21.71454329815218
1409,20.7773590564939
1449,20.846015482167233
1489,21.90527501963687
1529,22.28457744508111
1569,23.169666883573233
1609,21.96092365354882
1649,21.379203959455734
1689,21.87240689542678
1729,21.805586811095055
2,1, 7,21, 0, 8, 0.00,10.00,SummerDesignDay
8,13.978831900527043
10,93363385.1124118
735,56298833.73849046
2,1, 7,21, 0, 8,10.00,20.00,SummerDesignDay
8,14.110321014287419
10,90290671.60962639
735,28324379.778840037
2,1, 7,21, 0, 8,20.00,30.00,SummerDesignDay
8,14.241191509616986
10,88837838.32170062
735,18004181.37168441
2,1, 7,21, 0, 8,30.00,40.00,SummerDesignDay
8,14.371447531304272
10,88850894.13950181
735,3617464.821295909
2,1, 7,21, 0, 8,40.00,50.00,SummerDesignDay
8,14.501093766564925
10,88891092.1748565
735,12000.0
2,1, 7,21, 0, 8,50.00,60.00,SummerDesignDay
8,14.630134792273804
10,97959790.89032063
735,12000.0
2,1, 7,21, 0, 8, 0.00,60.00,SummerDesignDay
969,22.277275493497766
1009,23.583455186852605
1049,20.450924646755
1089,22.840468150923586
1129,23.929087986584546
1169,22.93798002174327
1209,22.113499632664256
1249,21.520743265999486
1289,21.43147956202955
1329,21.645616688202975
1369,23.252853249612686
1409,22.237281319465088
1449,22.28348520566396
1489,22.255491433661019
1529,22.629518549341058
1569,23.847949688645845
1609,22.300013165614943
1649,21.76244637016922
1689,22.235033342257244
1729,22.239204128393799
2,1, 7,21, 0, 9, 0.00,10.00,SummerDesignDay
8,14.773641492809972
10,225105282.84135659
735,48685109.072425197
2,1, 7,21, 0, 9,10.00,20.00,SummerDesignDay
8,14.91640948124148
10,234914829.04662616
735,32152552.473010985
2,1, 7,21, 0, 9,20.00,30.00,SummerDesignDay
8,15.05843890714102
10,241954851.06937833
735,32073027.791656864
2,1, 7,21, 0, 9,30.00,40.00,SummerDesignDay
8,15.199735893563798
10,250421394.77998538
735,32016133.183123929
2,1, 7,21, 0, 9,40.00,50.00,SummerDesignDay
8,15.340306256439395
10,258264075.44598434
735,36030604.861868429
2,1, 7,21, 0, 9,50.00,60.00,SummerDesignDay
8,15.48015101768072
10,268593815.9788633
735,29181591.400362597
2,1, 7,21, 0, 9, 0.00,60.00,SummerDesignDay
969,23.475684996851247
1009,23.999472301162219
1049,22.4411941289613
1089,23.86546059300895
1129,23.999839261813276
1169,23.896305618520285
1209,23.68648733292831
1249,23.370670036738998
1289,22.741789506486798
1329,23.033566105559598
1369,23.99966932162752
1409,22.620292465500517
1449,22.473749108943406
1489,22.19781851500977
1529,22.569333612869696
1569,23.990398139239916
1609,22.28022469715323
1649,21.733975361606495
1689,22.166207533633004
1729,22.25574470290322
2,1, 7,21, 0,10, 0.00,10.00,SummerDesignDay
8,15.60467292907716
10,323705566.42079058
735,27731772.466673815
2,1, 7,21, 0,10,10.00,20.00,SummerDesignDay
8,15.72862731650033
10,331670713.9674231
735,30482296.61717517
2,1, 7,21, 0,10,20.00,30.00,SummerDesignDay
8,15.852017409284228
10,342138415.2886898
735,32411261.774737047
2,1, 7,21, 0,10,30.00,40.00,SummerDesignDay
8,15.974848118364367
10,347239853.7232546
735,32253353.73191869
2,1, 7,21, 0,10,40.00,50.00,SummerDesignDay
8,16.097123145563505
10,352735666.8055896
735,32610764.808616718
2,1, 7,21, 0,10,50.00,60.00,SummerDesignDay
8,16.218846351168599
10,357733886.9670622
735,36703622.87553059
2,1, 7,21, 0,10, 0.00,60.00,SummerDesignDay
969,23.99960413235155
1009,23.999505220724
1049,23.821802822035325
1089,24.005887583726027
1129,23.99938601446108
1169,23.999517476419667
1209,23.999368046717664
1249,23.999851311269194
1289,23.904164955195556
1329,23.995484456005046
1369,23.999609880058129
1409,22.80944483379615
1449,22.395405123385446
1489,21.999994581778414
1529,22.298134369452034
1569,23.663502550843448
1609,22.009367544138504
1649,21.281507979453
1689,22.000022587349439
1729,21.97664835494552
2,1, 7,21, 0,11, 0.00,10.00,SummerDesignDay
8,16.325793027093189
10,363932570.18563368
735,71209010.20240425
2,1, 7,21, 0,11,10.00,20.00,SummerDesignDay
8,16.432322158488288
10,369412407.00510236
735,56575205.137998718
2,1, 7,21, 0,11,20.00,30.00,SummerDesignDay
8,16.538424180249178
10,373545850.65205559
735,51087081.26259232
2,1, 7,21, 0,11,30.00,40.00,SummerDesignDay
8,16.644108396469087
10,377658468.1289416
735,51883128.36616816
2,1, 7,21, 0,11,40.00,50.00,SummerDesignDay
8,16.749376736593655
10,381843866.55892726
735,74637028.79941473
2,1, 7,21, 0,11,50.00,60.00,SummerDesignDay
8,16.854232613237156
10,386002963.3948691
735,48975320.92276993
2,1, 7,21, 0,11, 0.00,60.00,SummerDesignDay
969,23.99944224937792
1009,23.99936802835163
1049,24.189061629995878
1089,24.113746840194286
1129,23.99910858316036
1169,23.99906561813704
1209,23.998923389873
1249,23.999930001838025
1289,23.99922078483559
1329,23.9973138070069
1369,23.99973551642553
1409,23.288622349812085
1449,22.76668931345044
1489,21.99999524792707
1529,22.550291215778434
1569,23.433065243822289
1609,22.000081899803836
1649,21.15149882007474
1689,21.999980995179766
1729,21.957759575749106
2,1, 7,21, 0,12, 0.00,10.00,SummerDesignDay
8,16.92390823520069
10,388922029.9967419
735,49451042.13158053
2,1, 7,21, 0,12,10.00,20.00,SummerDesignDay
8,16.99340178950456
10,392010580.46615669
735,72812170.06177789
2,1, 7,21, 0,12,20.00,30.00,SummerDesignDay
8,17.06272006743463
10,395282226.2002829
735,51721434.83117636
2,1, 7,21, 0,12,30.00,40.00,SummerDesignDay
8,17.131853229172639
10,398668117.96483287
735,49571524.30320219
2,1, 7,21, 0,12,40.00,50.00,SummerDesignDay
8,17.200807172194087
10,402206746.3594799
735,74909332.2497025
2,1, 7,21, 0,12,50.00,60.00,SummerDesignDay
8,17.269582116758607
10,405708598.8857732
735,49631746.23070646
2,1, 7,21, 0,12, 0.00,60.00,SummerDesignDay
969,23.999395561938447
1009,23.999275773232424
1049,24.37456077860656
1089,24.202395383442057
1129,23.99893467916819
1169,23.99878570393923
1209,23.99876860593439
1249,24.000126314017434
1289,23.99892346052935
1329,23.99676367993219
1369,23.999874058491746
1409,23.8345316781289
1449,23.272148228937764
1489,22.002049534650394
1529,23.013624539056609
1569,23.300863517079479
1609,22.05526949634981
1649,21.20732041888797
1689,21.99999724658034
1729,21.999874379604376
2,1, 7,21, 0,13, 0.00,10.00,SummerDesignDay
8,17.32447360221357
10,405392583.4640342
735,74909332.2497025
2,1, 7,21, 0,13,10.00,20.00,SummerDesignDay
8,17.379251291230806
10,408252707.1082133
735,53679146.59240203
2,1, 7,21, 0,13,20.00,30.00,SummerDesignDay
8,17.433921312061729
10,410785759.47484138
735,74909332.2497025
2,1, 7,21, 0,13,30.00,40.00,SummerDesignDay
8,17.488473222557489
10,413346101.45127049
735,74909332.2497025
2,1, 7,21, 0,13,40.00,50.00,SummerDesignDay
8,17.542913447755134
10,415916162.19066
735,74909332.2497025
2,1, 7,21, 0,13,50.00,60.00,SummerDesignDay
8,17.59724609886134
10,418355513.38566198
735,53677329.12497914
2,1, 7,21, 0,13, 0.00,60.00,SummerDesignDay
969,23.999459228397943
1009,23.999331330958399
1049,24.514916001843
1089,24.266252326126609
1129,23.99897062432966
1169,23.998850105691788
1209,23.998967295629755
1249,24.00012839859188
1289,23.998161093294028
1329,23.99668676687385
1369,24.000029772860825
1409,24.082029505860296
1449,23.48317024358502
1489,22.01938209987165
1529,23.296993764077454
1569,23.237725891247704
1609,22.10408134500717
1649,21.155307738555604
1689,21.99999808144563
1729,21.974297693036435
2,1, 7,21, 0,14, 0.00,10.00,SummerDesignDay
8,17.6311450462694
10,419884352.94170638
735,74909332.2497025
2,1, 7,21, 0,14,10.00,20.00,SummerDesignDay
8,17.665000449016245
10,421202408.7787533
735,74909332.2497025
2,1, 7,21, 0,14,20.00,30.00,SummerDesignDay
8,17.698812743128934
10,422533897.4311273
735,74909332.2497025
2,1, 7,21, 0,14,30.00,40.00,SummerDesignDay
8,17.732582050940107
10,423795851.7160512
735,53676391.96289459
2,1, 7,21, 0,14,40.00,50.00,SummerDesignDay
8,17.766307345121004
10,424942799.19163587
735,74909332.2497025
2,1, 7,21, 0,14,50.00,60.00,SummerDesignDay
8,17.79999023167558
10,426095133.47220286
735,74909332.2497025
2,1, 7,21, 0,14, 0.00,60.00,SummerDesignDay
969,23.99947054257247
1009,23.99936171629665
1049,24.605411920566
1089,24.310538948918305
1129,23.999008465311378
1169,23.998886369315377
1209,23.999097848772224
1249,24.000004773769694
1289,23.997551181442657
1329,23.99660407723492
1369,23.999998672659218
1409,24.148382036044095
1449,23.613926136765277
1489,22.095675764408015
1529,23.469316142406489
1569,23.25169332643947
1609,22.176744951305666
1649,21.118252317137935
1689,21.99998058845341
1729,21.937032400280029
2,1, 7,21, 0,15, 0.00,10.00,SummerDesignDay
8,17.79999023167558
10,429980195.7334921
735,74909332.2497025
2,1, 7,21, 0,15,10.00,20.00,SummerDesignDay
8,17.79999023167558
10,429814897.2695846
735,53675455.0537361
2,1, 7,21, 0,15,20.00,30.00,SummerDesignDay
8,17.79999023167558
10,429555310.82950988
735,74909332.2497025
2,1, 7,21, 0,15,30.00,40.00,SummerDesignDay
8,17.79999023167558
10,429042609.54965516
735,74909332.2497025
2,1, 7,21, 0,15,40.00,50.00,SummerDesignDay
8,17.79999023167558
10,425411074.7596605
735,74909332.2497025
2,1, 7,21, 0,15,50.00,60.00,SummerDesignDay
8,17.79999023167558
10,427833566.3396322
735,53674518.940153818
2,1, 7,21, 0,15, 0.00,60.00,SummerDesignDay
969,23.999354078193958
1009,23.99913302488058
1049,24.63122121313926
1089,24.321685410064707
1129,23.998870210728869
1169,23.998732897751649
1209,23.998992666718296
1249,23.99998619426231
1289,23.997413754227808
1329,23.996626062736806
1369,23.99992204793
1409,24.16634069748436
1449,24.095030659550628
1489,22.284261505935957
1529,23.597581807988268
1569,23.3741287017702
1609,22.35420961996087
1649,21.210773423857029
1689,22.001483790213027
1729,21.98913737306467
2,1, 7,21, 0,16, 0.00,10.00,SummerDesignDay
8,17.759562446305357
10,422127425.49070999
735,74909332.2497025
2,1, 7,21, 0,16,10.00,20.00,SummerDesignDay
8,17.71907809634183
10,419183192.59496876
735,74909332.2497025
2,1, 7,21, 0,16,20.00,30.00,SummerDesignDay
8,17.67853788661001
10,416195033.48539087
735,74909332.2497025
2,1, 7,21, 0,16,30.00,40.00,SummerDesignDay
8,17.63791796367351
10,413026730.5700677
735,53673584.16079932
2,1, 7,21, 0,16,40.00,50.00,SummerDesignDay
8,17.59724609886134
10,409684703.58577159
735,74909332.2497025
2,1, 7,21, 0,16,50.00,60.00,SummerDesignDay
8,17.55650676726033
10,406119748.44679287
735,74909332.2497025
2,1, 7,21, 0,16, 0.00,60.00,SummerDesignDay
969,23.99925671083558
1009,23.998820808565033
1049,24.577186749909378
1089,24.29311305473544
1129,23.998794310371705
1169,23.998677346809136
1209,23.99897855271014
1249,23.999986905470704
1289,23.99733508317603
1329,23.996711887260479
1369,23.999894278738993
1409,24.159380386561307
1449,24.838636990064456
1489,22.575474325226538
1529,23.716804998259577
1569,23.59083925699498
1609,22.620082374001027
1649,21.42892717142288
1689,22.136789149648569
1729,22.062325012151225
2,1, 7,21, 0,17, 0.00,10.00,SummerDesignDay
8,17.50209486331892
10,396961234.3792817
735,48117987.21159725
2,1, 7,21, 0,17,10.00,20.00,SummerDesignDay
8,17.447570789624618
10,392108219.5042602
735,51344694.2178225
2,1, 7,21, 0,17,20.00,30.00,SummerDesignDay
8,17.392929544208135
10,388176825.4420533
735,68681108.06228513
2,1, 7,21, 0,17,30.00,40.00,SummerDesignDay
8,17.33818013976614
10,384288086.08745297
735,49518816.15487652
2,1, 7,21, 0,17,40.00,50.00,SummerDesignDay
8,17.283317298559309
10,380353552.6918919
735,47343448.47603096
2,1, 7,21, 0,17,50.00,60.00,SummerDesignDay
8,17.22833552437677
10,376429264.87426117
735,47285895.68877219
2,1, 7,21, 0,17, 0.00,60.00,SummerDesignDay
969,23.99925963456205
1009,23.998654088583839
1049,24.472275434611743
1089,24.241436662882376
1129,23.99881471913848
1169,23.99871270524234
1209,23.9990761833984
1249,24.000037043804686
1289,23.997023119423884
1329,23.99772756631735
1369,23.999892606169359
1409,24.122862527796973
1449,25.387418069692669
1489,22.970253178629084
1529,23.94621845827532
1569,23.904394937967039
1609,22.976836792942735
1649,21.78351523533034
1689,22.467176433907299
1729,22.364983661146967
2,1, 7,21, 0,18, 0.00,10.00,SummerDesignDay
8,17.159453019160176
10,347421272.3230893
735,34629870.73097364
2,1, 7,21, 0,18,10.00,20.00,SummerDesignDay
8,17.090391773337136
10,341832414.8339703
735,36604549.55237842
2,1, 7,21, 0,18,20.00,30.00,SummerDesignDay
8,17.021151077964786
10,337146153.6181504
735,36610293.371636878
2,1, 7,21, 0,18,30.00,40.00,SummerDesignDay
8,16.951729380464653
10,332529198.66734638
735,36617373.651221018
2,1, 7,21, 0,18,40.00,50.00,SummerDesignDay
8,16.882126503829249
10,328036740.6385447
735,36624589.57018356
2,1, 7,21, 0,18,50.00,60.00,SummerDesignDay
8,16.812341807494034
10,323648284.47338858
735,36631819.333939049
2,1, 7,21, 0,18, 0.00,60.00,SummerDesignDay
969,23.999355088914226
1009,23.998764518607726
1049,24.340051108244297
1089,24.177391227531886
1129,23.99902303331655
1169,23.998963353835426
1209,23.99931542952987
1249,23.999948398703326
1289,23.997229313926345
1329,23.998869391640054
1369,23.999854385901974
1409,24.048556567350376
1449,25.7046926046429
1489,23.418031332385568
1529,24.291368837636865
1569,24.270528407734927
1609,23.37886077021065
1649,22.22609148463042
1689,22.87086137066724
1729,22.7716435659265
2,1, 7,21, 0,19, 0.00,10.00,SummerDesignDay
8,16.707321072823203
10,243483954.55300123
735,31214091.049156179
2,1, 7,21, 0,19,10.00,20.00,SummerDesignDay
8,16.601881826644556
10,236484918.19689376
735,30739915.610779443
2,1, 7,21, 0,19,20.00,30.00,SummerDesignDay
8,16.496030555252849
10,230875265.4824395
735,26406371.724480206
2,1, 7,21, 0,19,30.00,40.00,SummerDesignDay
8,16.389760181474104
10,225411197.5032777
735,20162265.27168278
2,1, 7,21, 0,19,40.00,50.00,SummerDesignDay
8,16.283067654262039
10,220071557.58167134
735,19941398.01008466
2,1, 7,21, 0,19,50.00,60.00,SummerDesignDay
8,16.17595057957811
10,214843334.33551307
735,25608521.67389086
2,1, 7,21, 0,19, 0.00,60.00,SummerDesignDay
969,23.999681743075798
1009,23.99926419984891
1049,24.142124165596685
1089,24.090642842646685
1129,23.99946867794733
1169,23.99948733354815
1209,23.998853771762457
1249,23.99996853213426
1289,23.998052774769037
1329,23.999379912987945
1369,23.999931537398525
1409,24.008924501496649
1449,25.80295998611851
1489,23.84441616403308
1529,24.63622637203632
1569,24.617053581859055
1609,23.76841821798605
1649,22.677488487215105
1689,23.28537045612885
1729,23.182400995779007
2,1, 7,21, 0,20, 0.00,10.00,SummerDesignDay
8,16.097123145563505
10,165059560.2144238
735,27212699.49917158
2,1, 7,21, 0,20,10.00,20.00,SummerDesignDay
8,16.018070242471564
10,160495516.68205364
735,26976969.77023697
2,1, 7,21, 0,20,20.00,30.00,SummerDesignDay
8,15.938779752340516
10,156437256.23223598
735,18402658.862497719
2,1, 7,21, 0,20,30.00,40.00,SummerDesignDay
8,15.85926152575189
10,152435613.13653157
735,8632052.001734848
2,1, 7,21, 0,20,40.00,50.00,SummerDesignDay
8,15.779503718563929
10,148453134.19050879
735,26874313.343143666
2,1, 7,21, 0,20,50.00,60.00,SummerDesignDay
8,15.699515709672767
10,144367437.92082597
735,26977252.933348266
2,1, 7,21, 0,20, 0.00,60.00,SummerDesignDay
969,23.999890819871454
1009,23.999663128294747
1049,23.951867895225886
1089,24.003683688136808
1129,23.944006147487526
1169,23.99960812216136
1209,23.3013937869477
1249,23.999999838755448
1289,23.999034111021165
1329,23.999075506530049
1369,23.999987206370908
1409,24.11888339804585
1449,25.590552602057028
1489,24.17617539978927
1529,24.896972676657325
1569,24.870625785505415
1609,24.134220032575298
1649,23.067044514893629
1689,23.692981106591618
1729,23.528955615526838
2,1, 7,21, 0,21, 0.00,10.00,SummerDesignDay
8,15.63389147320404
10,138322698.88587035
735,17964312.145475948
2,1, 7,21, 0,21,10.00,20.00,SummerDesignDay
8,15.56810827419793
10,134612587.0216926
735,9066279.857906584
2,1, 7,21, 0,21,20.00,30.00,SummerDesignDay
8,15.502170882753524
10,130920712.1378621
735,26875437.769471587
2,1, 7,21, 0,21,30.00,40.00,SummerDesignDay
8,15.436068032613852
10,129660547.53536839
735,26979524.69942172
2,1, 7,21, 0,21,40.00,50.00,SummerDesignDay
8,15.369804371206009
10,128638261.6582109
735,17527335.511584227
2,1, 7,21, 0,21,50.00,60.00,SummerDesignDay
8,15.303384603594449
10,127627403.33173789
735,9499081.91493563
2,1, 7,21, 0,21, 0.00,60.00,SummerDesignDay
969,23.99217304496922
1009,23.999847809936957
1049,23.80634273167448
1089,23.935281621505284
1129,23.847109415019238
1169,23.999665656909348
1209,22.563046264118016
1249,23.90991364576321
1289,23.99934738761848
1329,23.998994085970855
1369,23.929945024338154
1409,24.076431989041767
1449,24.98020358548578
1489,24.38761547885535
1529,25.045162196970638
1569,25.004206379208509
1609,24.360231034710016
1649,23.366536557761326
1689,23.963467899152744
1729,23.78593616694084
2,1, 7,21, 0,22, 0.00,10.00,SummerDesignDay
8,15.236797685071274
10,73002508.31435487
735,24519831.114218218
2,1, 7,21, 0,22,10.00,20.00,SummerDesignDay
8,15.170047891787942
10,72701740.68135053
735,2598437.2066642164
2,1, 7,21, 0,22,20.00,30.00,SummerDesignDay
8,15.103134826860483
10,72311238.51553338
735,21590286.786203557
2,1, 7,21, 0,22,30.00,40.00,SummerDesignDay
8,15.036063385178485
10,71961275.01574643
735,16981155.15147585