Program Version,EnergyPlus, Version 8.9.0-eba93e8e1b, YMD=2019.04.04 17:59
1,5,Environment Title[],Latitude[deg],Longitude[deg],Time Zone[],Elevation[m]
2,8,Day of Simulation[],Month[],Day of Month[],DST Indicator[1=yes 0=no],Hour[],StartMinute[],EndMinute[],DayType
3,5,Cumulative Day of Simulation[],Month[],Day of Month[],DST Indicator[1=yes 0=no],DayType  ! When Daily Report Variables Requested
4,2,Cumulative Days of Simulation[],Month[]  ! When Monthly Report Variables Requested
5,1,Cumulative Days of Simulation[] ! When Run Period Report Variables Requested
6,1,Calendar Year of Simulation[] ! When Annual Report Variables Requested
7,9,Environment,Site Outdoor Air Drybulb Temperature [C] !Monthly [Value,Min,Day,Hour,Minute,Max,Day,Hour,Minute]
8,1,Environment,Site Outdoor Air Wetbulb Temperature [C] !TimeStep
268,1,STORAGE ROOM <= 5 M2 <= 100 M2-SCH-D-SPACE FUNCTION ZN,Zone Air Temperature [C] !Hourly
269,7,STORAGE ROOM <= 5 M2 <= 100 M2-SCH-D-SPACE FUNCTION ZN,Zone Air Relative Humidity [%] !Daily [Value,Min,Hour,Minute,Max,Hour,Minute]
308,1,STORAGE ROOM <= 5 M2 <= 100 M2-SCH-E-SPACE FUNCTION ZN,Zone Air Temperature [C] !Hourly
309,7,STORAGE ROOM <= 5 M2 <= 100 M2-SCH-E-SPACE FUNCTION ZN,Zone Air Relative Humidity [%] !Daily [Value,Min,Hour,Minute,Max,Hour,Minute]
348,1,STORAGE ROOM <= 5 M2 <= 100 M2-SCH-F-SPACE FUNCTION ZN,Zone Air Temperature [C] !Hourly
349,7,STORAGE ROOM <= 5 M2 <= 100 M2-SCH-F-SPACE FUNCTION ZN,Zone Air Relative Humidity [%] !Daily [Value,Min,Hour,Minute,Max,Hour,Minute]
388,1,STORAGE ROOM <= 5 M2 <= 100 M2-SCH-G-SPACE FUNCTION ZN,Zone Air Temperature [C] !Hourly
389,7,STORAGE ROOM <= 5 M2 <= 100 M2-SCH-G-SPACE FUNCTION ZN,Zone Air Relative Humidity [%] !Daily [Value,Min,Hour,Minute,Max,Hour,Minute]
428,1,STORAGE ROOM <= 5 M2 <= 100 M2-SCH-H-SPACE FUNCTION ZN,Zone Air Temperature [C] !Hourly
429,7,STORAGE ROOM <= 5 M2 <= 100 M2-SCH-H-SPACE FUNCTION ZN,Zone Air Relative Humidity [%] !Daily [Value,Min,Hour,Minute,Max,Hour,Minute]
10,1,Electricity:Facility [J] !TimeStep
579,1,DistrictCooling:Facility [J] !TimeStep
542,1,DistrictHeating:Facility [J] !TimeStep
End of Data Dictionary
1,FORT MCMURRAY AP ANN CLG .4% CONDNS DB=>MWB,  56.65,-111.22,  -7.00, 369.10
2,1, 7,21, 0, 1, 0.00,10.00,SummerDesignDay
8,14.218136923962174
10,11683244.401185204
542,0.0
579,2077030.9040489624
2,1, 7,21, 0, 1,10.00,20.00,SummerDesignDay
8,14.171982153293495
10,11683244.401185204
542,0.0
579,1946003.8839218489
2,1, 7,21, 0, 1,20.00,30.00,SummerDesignDay
8,14.125744780286427
10,11683244.401185204
542,0.0
579,1814104.8198810388
2,1, 7,21, 0, 1,30.00,40.00,SummerDesignDay
8,14.079436086331978
10,11683244.401185204
542,0.0
579,1683510.278970353
2,1, 7,21, 0, 1,40.00,50.00,SummerDesignDay
8,14.033050387896898
10,11683244.401185204
542,0.0
579,1555393.4121908339
2,1, 7,21, 0, 1,50.00,60.00,SummerDesignDay
8,13.986581233564835
10,11683244.401185204
542,0.0
579,1428560.3026839677
2,1, 7,21, 0, 1, 0.00,60.00,SummerDesignDay
268,22.339789353928738
308,21.988175720496597
348,23.158404225966949
388,23.614888937469478
428,24.0
2,1, 7,21, 0, 2, 0.00,10.00,SummerDesignDay
8,13.95555882260429
10,8851715.736269139
542,0.0
579,1326852.0751488102
2,1, 7,21, 0, 2,10.00,20.00,SummerDesignDay
8,13.924507755336454
10,8851715.736269139
542,0.0
579,1220286.5416214085
2,1, 7,21, 0, 2,20.00,30.00,SummerDesignDay
8,13.893416042989206
10,8851715.736269139
542,0.0
579,1113561.099878541
2,1, 7,21, 0, 2,30.00,40.00,SummerDesignDay
8,13.862289589689029
10,8851715.736269139
542,0.0
579,1008555.5285080243
2,1, 7,21, 0, 2,40.00,50.00,SummerDesignDay
8,13.831134407608739
10,8851715.736269139
542,0.0
579,905939.5493893239
2,1, 7,21, 0, 2,50.00,60.00,SummerDesignDay
8,13.799938415548118
10,8851715.736269139
542,0.0
579,804182.9039121119
2,1, 7,21, 0, 2, 0.00,60.00,SummerDesignDay
268,21.896042947293578
308,21.684839238807539
348,22.48003786876104
388,22.72039015255426
428,24.00000000000001
2,1, 7,21, 0, 3, 0.00,10.00,SummerDesignDay
8,13.776521671948676
10,8851715.736269139
542,0.0
579,718121.4787326467
2,1, 7,21, 0, 3,10.00,20.00,SummerDesignDay
8,13.753085235778466
10,8851715.736269139
542,0.0
579,634270.3020274682
2,1, 7,21, 0, 3,20.00,30.00,SummerDesignDay
8,13.729636002354969
10,8851715.736269139
542,0.0
579,553479.876965135
2,1, 7,21, 0, 3,30.00,40.00,SummerDesignDay
8,13.706147375533054
10,8851715.736269139
542,0.0
579,474945.29542241248
2,1, 7,21, 0, 3,40.00,50.00,SummerDesignDay
8,13.682651961920304
10,8851715.736269139
542,0.0
579,399587.235172586
2,1, 7,21, 0, 3,50.00,60.00,SummerDesignDay
8,13.659136670643687
10,8851715.736269139
542,0.0
579,324880.4546554896
2,1, 7,21, 0, 3, 0.00,60.00,SummerDesignDay
268,21.55935105146375
308,21.43283994852491
348,22.010812790861939
388,22.012238028514618
428,24.00000000000001
2,1, 7,21, 0, 4, 0.00,10.00,SummerDesignDay
8,13.63560137410855
10,8316021.123987721
542,0.0
579,249802.54410661377
2,1, 7,21, 0, 4,10.00,20.00,SummerDesignDay
8,13.612040802606578
10,8316021.123987721
542,0.0
579,178428.98657682865
2,1, 7,21, 0, 4,20.00,30.00,SummerDesignDay
8,13.58846620506876
10,8316021.123987721
542,0.0
579,107516.10224796713
2,1, 7,21, 0, 4,30.00,40.00,SummerDesignDay
8,13.56487178447336
10,8316021.123987721
542,0.0
579,38581.16095631384
2,1, 7,21, 0, 4,40.00,50.00,SummerDesignDay
8,13.541257354069103
10,8316021.123987721
542,0.0
579,0.0
2,1, 7,21, 0, 4,50.00,60.00,SummerDesignDay
8,13.517617463812285
10,8316021.123987721
542,0.0
579,0.0
2,1, 7,21, 0, 4, 0.00,60.00,SummerDesignDay
268,21.299999391317468
308,21.228055914982016
348,21.62402769795383
388,21.633191547383459
428,23.998910636596184
2,1, 7,21, 0, 5, 0.00,10.00,SummerDesignDay
8,13.50185415824011
10,8316021.123987721
542,0.0
579,0.0
2,1, 7,21, 0, 5,10.00,20.00,SummerDesignDay
8,13.486076034032447
10,8316021.123987721
542,0.0
579,0.0
2,1, 7,21, 0, 5,20.00,30.00,SummerDesignDay
8,13.470289340350983
10,8316021.123987721
542,0.0
579,0.0
2,1, 7,21, 0, 5,30.00,40.00,SummerDesignDay
8,13.454493322631063
10,8316021.123987721
542,0.0
579,0.0
2,1, 7,21, 0, 5,40.00,50.00,SummerDesignDay
8,13.438688835118548
10,8316021.123987721
542,0.0
579,0.0
2,1, 7,21, 0, 5,50.00,60.00,SummerDesignDay
8,13.422888173889437
10,8316021.123987721
542,0.0
579,0.0
2,1, 7,21, 0, 5, 0.00,60.00,SummerDesignDay
268,21.095750681382243
308,21.057265551216579
348,21.318356297757189
388,21.38773671336507
428,23.959462849586733
2,1, 7,21, 0, 6, 0.00,10.00,SummerDesignDay
8,13.438688835118548
10,8316021.123987721
542,0.0
579,0.0
2,1, 7,21, 0, 6,10.00,20.00,SummerDesignDay
8,13.454493322631063
10,8316021.123987721
542,0.0
579,0.0
2,1, 7,21, 0, 6,20.00,30.00,SummerDesignDay
8,13.470289340350983
10,8316021.123987721
542,0.0
579,0.0
2,1, 7,21, 0, 6,30.00,40.00,SummerDesignDay
8,13.486076034032447
10,8316021.123987721
542,0.0
579,0.0
2,1, 7,21, 0, 6,40.00,50.00,SummerDesignDay
8,13.50185415824011
10,8316021.123987721
542,0.0
579,0.0
2,1, 7,21, 0, 6,50.00,60.00,SummerDesignDay
8,13.517617463812285
10,8316021.123987721
542,0.0
579,0.0
2,1, 7,21, 0, 6, 0.00,60.00,SummerDesignDay
268,20.961525354551083
308,20.94313869529134
348,21.1466495379526
388,21.241305760225758
428,23.899040405109188
2,1, 7,21, 0, 7, 0.00,10.00,SummerDesignDay
8,13.572736920571789
10,10382271.771358904
542,0.0
579,0.0
2,1, 7,21, 0, 7,10.00,20.00,SummerDesignDay
8,13.627748229152554
10,10382271.771358904
542,0.0
579,0.0
2,1, 7,21, 0, 7,20.00,30.00,SummerDesignDay
8,13.682651961920304
10,10382271.771358904
542,0.0
579,0.0
2,1, 7,21, 0, 7,30.00,40.00,SummerDesignDay
8,13.737448093244995
10,10382271.771358904
542,0.0
579,0.0
2,1, 7,21, 0, 7,40.00,50.00,SummerDesignDay
8,13.792137011831216
10,10382271.771358904
542,0.0
579,0.0
2,1, 7,21, 0, 7,50.00,60.00,SummerDesignDay
8,13.846719282840333
10,10382271.771358904
542,0.0
579,0.0
2,1, 7,21, 0, 7, 0.00,60.00,SummerDesignDay
268,20.947692012059677
308,20.939387911409566
348,21.19813832242172
388,21.450295189388546
428,23.9231900225554
2,1, 7,21, 0, 8, 0.00,10.00,SummerDesignDay
8,13.978831900527043
10,13749495.048556386
542,0.0
579,31610.385665035577
2,1, 7,21, 0, 8,10.00,20.00,SummerDesignDay
8,14.110321014287419
10,13749495.048556386
542,0.0
579,1024601.3873670221
2,1, 7,21, 0, 8,20.00,30.00,SummerDesignDay
8,14.241191509616986
10,13749495.048556386
542,0.0
579,893941.0328274597
2,1, 7,21, 0, 8,30.00,40.00,SummerDesignDay
8,14.371447531304272
10,13749495.048556386
542,0.0
579,1264370.1620666122
2,1, 7,21, 0, 8,40.00,50.00,SummerDesignDay
8,14.501093766564925
10,13749495.048556386
542,0.0
579,1534687.4350482419
2,1, 7,21, 0, 8,50.00,60.00,SummerDesignDay
8,14.630134792273804
10,13749495.048556386
542,0.0
579,1803966.8672140535
2,1, 7,21, 0, 8, 0.00,60.00,SummerDesignDay
268,21.13755863690427
308,21.122798109418186
348,21.60192509465821
388,22.18262247126795
428,23.99985870944902
2,1, 7,21, 0, 9, 0.00,10.00,SummerDesignDay
8,14.773641492809972
10,19514589.447394499
542,27312290.800570858
579,2108649.7198385784
2,1, 7,21, 0, 9,10.00,20.00,SummerDesignDay
8,14.91640948124148
10,19514589.447394499
542,0.0
579,2440683.4989334077
2,1, 7,21, 0, 9,20.00,30.00,SummerDesignDay
8,15.05843890714102
10,19514589.447394499
542,0.0
579,2804985.0084327815
2,1, 7,21, 0, 9,30.00,40.00,SummerDesignDay
8,15.199735893563798
10,19514589.447394499
542,0.0
579,3172400.5020168225
2,1, 7,21, 0, 9,40.00,50.00,SummerDesignDay
8,15.340306256439395
10,19514589.447394499
542,0.0
579,3530517.4482990649
2,1, 7,21, 0, 9,50.00,60.00,SummerDesignDay
8,15.48015101768072
10,19514589.447394499
542,0.0
579,3874754.4344731408
2,1, 7,21, 0, 9, 0.00,60.00,SummerDesignDay
268,22.483235854047849
308,22.609848073135934
348,22.39943769266587
388,22.992510758602966
428,23.999999999999998
2,1, 7,21, 0,10, 0.00,10.00,SummerDesignDay
8,15.60467292907716
10,23570562.940382378
542,0.0
579,4180278.077973012
2,1, 7,21, 0,10,10.00,20.00,SummerDesignDay
8,15.72862731650033
10,23570562.940382378
542,0.0
579,4400244.66754414
2,1, 7,21, 0,10,20.00,30.00,SummerDesignDay
8,15.852017409284228
10,23570562.940382378
542,0.0
579,4627016.508101353
2,1, 7,21, 0,10,30.00,40.00,SummerDesignDay
8,15.974848118364367
10,23570562.940382378
542,0.0
579,6024257.876616241
2,1, 7,21, 0,10,40.00,50.00,SummerDesignDay
8,16.097123145563505
10,23570562.940382378
542,0.0
579,14491680.583351024
2,1, 7,21, 0,10,50.00,60.00,SummerDesignDay
8,16.218846351168599
10,23570562.940382378
542,0.0
579,16109099.431736442
2,1, 7,21, 0,10, 0.00,60.00,SummerDesignDay
268,23.59613062255013
308,23.60862784460917
348,23.057062006024137
388,23.253174324428774
428,24.000000000000005
2,1, 7,21, 0,11, 0.00,10.00,SummerDesignDay
8,16.325793027093189
10,25101118.975472139
542,0.0
579,16794212.325987787
2,1, 7,21, 0,11,10.00,20.00,SummerDesignDay
8,16.432322158488288
10,25101118.975472139
542,0.0
579,18433244.593353258
2,1, 7,21, 0,11,20.00,30.00,SummerDesignDay
8,16.538424180249178
10,25101118.975472139
542,0.0
579,19171869.660680627
2,1, 7,21, 0,11,30.00,40.00,SummerDesignDay
8,16.644108396469087
10,25101118.975472139
542,0.0
579,19890783.123660238
2,1, 7,21, 0,11,40.00,50.00,SummerDesignDay
8,16.749376736593655
10,25101118.975472139
542,0.0
579,20612868.01825814
2,1, 7,21, 0,11,50.00,60.00,SummerDesignDay
8,16.854232613237156
10,25101118.975472139
542,0.0
579,24010040.541166676
2,1, 7,21, 0,11, 0.00,60.00,SummerDesignDay
268,23.99999999348832
308,23.999999603244164
348,23.796981081250043
388,23.41008079162735
428,24.00000000000001
2,1, 7,21, 0,12, 0.00,10.00,SummerDesignDay
8,16.92390823520069
10,24565424.363190727
542,0.0
579,22818759.648111769
2,1, 7,21, 0,12,10.00,20.00,SummerDesignDay
8,16.99340178950456
10,24565424.363190727
542,0.0
579,23774560.90048926
2,1, 7,21, 0,12,20.00,30.00,SummerDesignDay
8,17.06272006743463
10,24565424.363190727
542,0.0
579,24381825.293870074
2,1, 7,21, 0,12,30.00,40.00,SummerDesignDay
8,17.131853229172639
10,24565424.363190727
542,0.0
579,24954133.092513145
2,1, 7,21, 0,12,40.00,50.00,SummerDesignDay
8,17.200807172194087
10,24565424.363190727
542,0.0
579,25509753.89939085
2,1, 7,21, 0,12,50.00,60.00,SummerDesignDay
8,17.269582116758607
10,24565424.363190727
542,0.0
579,26051869.864079089
2,1, 7,21, 0,12, 0.00,60.00,SummerDesignDay
268,24.0
308,24.000000000000015
348,23.999999593859998
388,23.818791899791724
428,24.00000000000001
2,1, 7,21, 0,13, 0.00,10.00,SummerDesignDay
8,17.32447360221357
10,24029729.750909307
542,0.0
579,27328730.316189849
2,1, 7,21, 0,13,10.00,20.00,SummerDesignDay
8,17.379251291230806
10,24029729.750909307
542,0.0
579,27315368.847534226
2,1, 7,21, 0,13,20.00,30.00,SummerDesignDay
8,17.433921312061729
10,24029729.750909307
542,0.0
579,27930447.311346249
2,1, 7,21, 0,13,30.00,40.00,SummerDesignDay
8,17.488473222557489
10,24029729.750909307
542,0.0
579,28492386.17261451
2,1, 7,21, 0,13,40.00,50.00,SummerDesignDay
8,17.542913447755134
10,24029729.750909307
542,0.0
579,29010738.396262617
2,1, 7,21, 0,13,50.00,60.00,SummerDesignDay
8,17.59724609886134
10,24029729.750909307
542,0.0
579,29524961.86041252
2,1, 7,21, 0,13, 0.00,60.00,SummerDesignDay
268,24.00000000000001
308,24.00000000000001
348,24.0
388,23.999948122256339
428,24.00000000000001
2,1, 7,21, 0,14, 0.00,10.00,SummerDesignDay
8,17.6311450462694
10,24029729.750909307
542,0.0
579,29854944.754842476
2,1, 7,21, 0,14,10.00,20.00,SummerDesignDay
8,17.665000449016245
10,24029729.750909307
542,0.0
579,30180770.171173689
2,1, 7,21, 0,14,20.00,30.00,SummerDesignDay
8,17.698812743128934
10,24029729.750909307
542,0.0
579,30502872.15061876
2,1, 7,21, 0,14,30.00,40.00,SummerDesignDay
8,17.732582050940107
10,24029729.750909307
542,0.0
579,30821777.510846907
2,1, 7,21, 0,14,40.00,50.00,SummerDesignDay
8,17.766307345121004
10,24029729.750909307
542,0.0
579,31137984.223932506
2,1, 7,21, 0,14,50.00,60.00,SummerDesignDay
8,17.79999023167558
10,24029729.750909307
542,0.0
579,31451917.676529834
2,1, 7,21, 0,14, 0.00,60.00,SummerDesignDay
268,24.000000000000015
308,24.0
348,24.0
388,23.999999999999987
428,24.00000000000001
2,1, 7,21, 0,15, 0.00,10.00,SummerDesignDay
8,17.79999023167558
10,24029729.750909307
542,0.0
579,31209199.71287048
2,1, 7,21, 0,15,10.00,20.00,SummerDesignDay
8,17.79999023167558
10,24029729.750909307
542,0.0
579,31201791.389751827
2,1, 7,21, 0,15,20.00,30.00,SummerDesignDay
8,17.79999023167558
10,24029729.750909307
542,0.0
579,31202796.43682745
2,1, 7,21, 0,15,30.00,40.00,SummerDesignDay
8,17.79999023167558
10,24029729.750909307
542,0.0
579,31204679.20136972
2,1, 7,21, 0,15,40.00,50.00,SummerDesignDay
8,17.79999023167558
10,24029729.750909307
542,0.0
579,31206928.460542948
2,1, 7,21, 0,15,50.00,60.00,SummerDesignDay
8,17.79999023167558
10,24029729.750909307
542,0.0
579,31209348.60147567
2,1, 7,21, 0,15, 0.00,60.00,SummerDesignDay
268,24.00000000000001
308,24.000000000000015
348,24.0
388,23.999999999999998
428,24.000000000000005
2,1, 7,21, 0,16, 0.00,10.00,SummerDesignDay
8,17.759562446305357
10,24029729.750909307
542,0.0
579,31110746.15794313
2,1, 7,21, 0,16,10.00,20.00,SummerDesignDay
8,17.71907809634183
10,24029729.750909307
542,0.0
579,30765951.725415686
2,1, 7,21, 0,16,20.00,30.00,SummerDesignDay
8,17.67853788661001
10,24029729.750909307
542,0.0
579,30409231.844890674
2,1, 7,21, 0,16,30.00,40.00,SummerDesignDay
8,17.63791796367351
10,24029729.750909307
542,0.0
579,30052292.58750484
2,1, 7,21, 0,16,40.00,50.00,SummerDesignDay
8,17.59724609886134
10,24029729.750909307
542,0.0
579,29695119.87434156
2,1, 7,21, 0,16,50.00,60.00,SummerDesignDay
8,17.55650676726033
10,24029729.750909307
542,0.0
579,29337535.449951248
2,1, 7,21, 0,16, 0.00,60.00,SummerDesignDay
268,24.000000000000005
308,24.0
348,24.0
388,24.0
428,24.00000000000001
2,1, 7,21, 0,17, 0.00,10.00,SummerDesignDay
8,17.50209486331892
10,21988988.370789619
542,0.0
579,27366551.76892731
2,1, 7,21, 0,17,10.00,20.00,SummerDesignDay
8,17.447570789624618
10,21988988.370789619
542,0.0
579,26712643.752730386
2,1, 7,21, 0,17,20.00,30.00,SummerDesignDay
8,17.392929544208135
10,21988988.370789619
542,0.0
579,26196216.865069696
2,1, 7,21, 0,17,30.00,40.00,SummerDesignDay
8,17.33818013976614
10,21988988.370789619
542,0.0
579,25677201.84197239
2,1, 7,21, 0,17,40.00,50.00,SummerDesignDay
8,17.283317298559309
10,21988988.370789619
542,0.0
579,25160697.569938594
2,1, 7,21, 0,17,50.00,60.00,SummerDesignDay
8,17.22833552437677
10,21988988.370789619
542,0.0
579,24646639.02436122
2,1, 7,21, 0,17, 0.00,60.00,SummerDesignDay
268,24.000000000000005
308,24.0
348,24.0
388,24.0
428,24.000000000000005
2,1, 7,21, 0,18, 0.00,10.00,SummerDesignDay
8,17.159453019160176
10,19948246.990669934
542,0.0
579,22860450.500619167
2,1, 7,21, 0,18,10.00,20.00,SummerDesignDay
8,17.090391773337136
10,19948246.990669934
542,0.0
579,22112521.328630367
2,1, 7,21, 0,18,20.00,30.00,SummerDesignDay
8,17.021151077964786
10,19948246.990669934
542,0.0
579,21443150.57432013
2,1, 7,21, 0,18,30.00,40.00,SummerDesignDay
8,16.951729380464653
10,19948246.990669934
542,0.0
579,20726454.70943865
2,1, 7,21, 0,18,40.00,50.00,SummerDesignDay
8,16.882126503829249
10,19948246.990669934
542,0.0
579,20009069.326466934
2,1, 7,21, 0,18,50.00,60.00,SummerDesignDay
8,16.812341807494034
10,19948246.990669934
542,0.0
579,19308903.187081435
2,1, 7,21, 0,18, 0.00,60.00,SummerDesignDay
268,24.000000000000005
308,24.000000000000005
348,24.0
388,24.0
428,24.0
2,1, 7,21, 0,19, 0.00,10.00,SummerDesignDay
8,16.707321072823203
10,16121856.90294552
542,0.0
579,15353891.923804963
2,1, 7,21, 0,19,10.00,20.00,SummerDesignDay
8,16.601881826644556
10,16121856.90294552
542,0.0
579,14045298.6294025
2,1, 7,21, 0,19,20.00,30.00,SummerDesignDay
8,16.496030555252849
10,16121856.90294552
542,0.0
579,12884834.681412522
2,1, 7,21, 0,19,30.00,40.00,SummerDesignDay
8,16.389760181474104
10,16121856.90294552
542,0.0
579,11936804.429708306
2,1, 7,21, 0,19,40.00,50.00,SummerDesignDay
8,16.283067654262039
10,16121856.90294552
542,0.0
579,11010401.485662856
2,1, 7,21, 0,19,50.00,60.00,SummerDesignDay
8,16.17595057957811
10,16121856.90294552
542,0.0
579,10280182.434182663
2,1, 7,21, 0,19, 0.00,60.00,SummerDesignDay
268,24.000000000000005
308,24.0
348,23.998834795211736
388,23.982482616247795
428,24.000000000000005
2,1, 7,21, 0,20, 0.00,10.00,SummerDesignDay
8,16.097123145563505
10,24514405.828687729
542,0.0
579,14762944.224592824
2,1, 7,21, 0,20,10.00,20.00,SummerDesignDay
8,16.018070242471564
10,24514405.828687729
542,0.0
579,17143902.74134291
2,1, 7,21, 0,20,20.00,30.00,SummerDesignDay
8,15.938779752340516
10,24514405.828687729
542,0.0
579,15872121.906609644
2,1, 7,21, 0,20,30.00,40.00,SummerDesignDay
8,15.85926152575189
10,24514405.828687729
542,0.0
579,15672085.398675636
2,1, 7,21, 0,20,40.00,50.00,SummerDesignDay
8,15.779503718563929
10,24514405.828687729
542,0.0
579,15266517.977449732
2,1, 7,21, 0,20,50.00,60.00,SummerDesignDay
8,15.699515709672767
10,24514405.828687729
542,0.0
579,14819735.717644535
2,1, 7,21, 0,20, 0.00,60.00,SummerDesignDay
268,24.0
308,23.807552936282609
348,23.99996775414444
388,23.99971425358699
428,23.999999999999998
2,1, 7,21, 0,21, 0.00,10.00,SummerDesignDay
8,15.63389147320404
10,25585795.053250567
542,0.0
579,15255449.240476437
2,1, 7,21, 0,21,10.00,20.00,SummerDesignDay
8,15.56810827419793
10,25585795.053250567
542,0.0
579,15187599.126721496
2,1, 7,21, 0,21,20.00,30.00,SummerDesignDay
8,15.502170882753524
10,25585795.053250567
542,0.0
579,14765331.607457135
2,1, 7,21, 0,21,30.00,40.00,SummerDesignDay
8,15.436068032613852
10,25585795.053250567
542,0.0
579,14364482.328870122
2,1, 7,21, 0,21,40.00,50.00,SummerDesignDay
8,15.369804371206009
10,25585795.053250567
542,0.0
579,13943085.333504621
2,1, 7,21, 0,21,50.00,60.00,SummerDesignDay
8,15.303384603594449
10,25585795.053250567
542,0.0
579,13507488.03130437
2,1, 7,21, 0,21, 0.00,60.00,SummerDesignDay
268,24.0
308,23.389378041473063
348,23.999999999999987
388,23.999999999999927
428,24.00000000000001
2,1, 7,21, 0,22, 0.00,10.00,SummerDesignDay
8,15.236797685071274
10,26121489.665531979
542,0.0
579,13500533.199074287
2,1, 7,21, 0,22,10.00,20.00,SummerDesignDay
8,15.170047891787942
10,26121489.665531979
542,0.0
579,13121180.270272479
2,1, 7,21, 0,22,20.00,30.00,SummerDesignDay
8,15.103134826860483
10,26121489.665531979
542,0.0
579,12667936.014863402
2,1, 7,21, 0,22,30.00,40.00,SummerDesignDay
8,15.036063385178485
10,26121489.665531979
542,0.0
579,12183837.602280142
2,1, 7,21, 0,22,40.00,50.00,SummerDesignDay
8,14.968821767219835
10,26121489.665531979
542,0.0
579,11670542.2889164
2,1, 7,21, 0,22,50.00,60.00,SummerDesignDay
8,14.90141525878635
10,26121489.665531979
542,0.0
579,11128516.815404978
2,1, 7,21, 0,22, 0.00,60.00,SummerDesignDay
268,24.0
308,22.994633130456398
348,24.0
388,24.000000000000005
428,24.000000000000015
2,1, 7,21, 0,23, 0.00,10.00,SummerDesignDay
8,14.848873673278373
10,20739034.275466309
542,0.0
579,7545359.952098014
2,1, 7,21, 0,23,10.00,20.00,SummerDesignDay
8,14.796237168136719
10,20739034.275466309
542,0.0
579,7059785.290403275
2,1, 7,21, 0,23,20.00,30.00,SummerDesignDay
8,14.743494321455645
10,20739034.275466309
542,0.0
579,6678233.830772437
2,1, 7,21, 0,23,30.00,40.00,SummerDesignDay
8,14.690649975253665
10,20739034.275466309
542,0.0
579,6286640.765497707
2,1, 7,21, 0,23,40.00,50.00,SummerDesignDay
8,14.637704281233117
10,20739034.275466309
542,0.0
579,5904800.098712655
2,1, 7,21, 0,23,50.00,60.00,SummerDesignDay
8,14.584656914839757
10,20739034.275466309
542,0.0
579,5545075.459891481
2,1, 7,21, 0,23, 0.00,60.00,SummerDesignDay
268,23.74180933543535
308,22.63868747008784
348,23.999907327006267
388,24.000000000000005
428,24.000000000000015
2,1, 7,21, 0,24, 0.00,10.00,SummerDesignDay
8,14.531507212058875
10,15586162.290664103
542,0.0
579,3911155.5265340188
2,1, 7,21, 0,24,10.00,20.00,SummerDesignDay
8,14.47825496413355
10,15586162.290664103
542,0.0
579,3495818.0433338528
2,1, 7,21, 0,24,20.00,30.00,SummerDesignDay
8,14.4249000133173
10,15586162.290664103
542,0.0
579,3199704.870176632
2,1, 7,21, 0,24,30.00,40.00,SummerDesignDay
8,14.371447531304272
10,15586162.290664103
542,0.0
579,2898495.427894703
2,1, 7,21, 0,24,40.00,50.00,SummerDesignDay
8,14.31788619902223
10,15586162.290664103
542,0.0
579,2607464.7413995529
2,1, 7,21, 0,24,50.00,60.00,SummerDesignDay
8,14.264220970176066
10,15586162.290664103
542,0.0
579,2324713.4264348458
2,1, 7,21, 0,24, 0.00,60.00,SummerDesignDay
268,23.010995047818878
308,22.313662164940685
348,23.787920177094006
388,24.000000000000005
428,24.000000000000015
3,1, 7,21, 0,SummerDesignDay
269,46.53859348918932,41.5825163343323,19,30,54.24659930756194, 7,20
309,47.52884230948866,42.21735531219106,19,20,54.39883927529227, 7,10
349,47.601246014080519,42.71107226012034,17,20,55.43426408175153, 6,60
389,47.86957525614692,43.53072310531898,23,10,55.63380262060451, 6,60
429,44.13747552117872,42.37661427246978,22,30,47.250515049661377, 7,30
4,1, 7
7,22.2505,16.5,21, 5,60,28.9,21,14,60
1,FORT MCMURRAY AP ANN HTG 99.6% CONDNS DB,  56.65,-111.22,  -7.00, 369.10
2,1, 1,21, 0, 1, 0.00,10.00,WinterDesignDay
8,-36.2
10,11683244.401185204
542,128646904.15010801
579,0.0
2,1, 1,21, 0, 1,10.00,20.00,WinterDesignDay
8,-36.2
10,11683244.401185204
542,129627417.29604392
579,0.0
2,1, 1,21, 0, 1,20.00,30.00,WinterDesignDay
8,-36.2
10,11683244.401185204
542,129933384.35886088
579,0.0
2,1, 1,21, 0, 1,30.00,40.00,WinterDesignDay
8,-36.2
10,11683244.401185204
542,130238104.325234
579,0.0
2,1, 1,21, 0, 1,40.00,50.00,WinterDesignDay
8,-36.2
10,11683244.401185204
542,130483485.51982238
579,0.0
2,1, 1,21, 0, 1,50.00,60.00,WinterDesignDay
8,-36.2
10,11683244.401185204
542,130671507.7572566
579,0.0
2,1, 1,21, 0, 1, 0.00,60.00,WinterDesignDay
268,18.000000000000868
308,18.000000000000005
348,22.0
388,22.0
428,22.00000000000001
2,1, 1,21, 0, 2, 0.00,10.00,WinterDesignDay
8,-36.2
10,8851715.736269139
542,51816133.53082019
579,0.0
2,1, 1,21, 0, 2,10.00,20.00,WinterDesignDay
8,-36.2
10,8851715.736269139
542,51955347.735580969
579,0.0
2,1, 1,21, 0, 2,20.00,30.00,WinterDesignDay
8,-36.2
10,8851715.736269139
542,77692651.7956918
579,0.0
2,1, 1,21, 0, 2,30.00,40.00,WinterDesignDay
8,-36.2
10,8851715.736269139
542,99262460.10766527
579,0.0
2,1, 1,21, 0, 2,40.00,50.00,WinterDesignDay
8,-36.2
10,8851715.736269139
542,112988544.3655142
579,0.0
2,1, 1,21, 0, 2,50.00,60.00,WinterDesignDay
8,-36.2
10,8851715.736269139
542,111955522.38877748
579,0.0
2,1, 1,21, 0, 2, 0.00,60.00,WinterDesignDay
268,18.000000000000005
308,18.000000000000005
348,18.64850209581537
388,18.642464683761746
428,18.823869423770398
2,1, 1,21, 0, 3, 0.00,10.00,WinterDesignDay
8,-36.2
10,8851715.736269139
542,114003908.93266049
579,0.0
2,1, 1,21, 0, 3,10.00,20.00,WinterDesignDay
8,-36.2
10,8851715.736269139
542,115025307.58154992
579,0.0
2,1, 1,21, 0, 3,20.00,30.00,WinterDesignDay
8,-36.2
10,8851715.736269139
542,115538545.93861285
579,0.0
2,1, 1,21, 0, 3,30.00,40.00,WinterDesignDay
8,-36.2
10,8851715.736269139
542,115928608.10422562
579,0.0
2,1, 1,21, 0, 3,40.00,50.00,WinterDesignDay
8,-36.2
10,8851715.736269139
542,116226619.33838736
579,0.0
2,1, 1,21, 0, 3,50.00,60.00,WinterDesignDay
8,-36.2
10,8851715.736269139
542,116470449.46887747
579,0.0
2,1, 1,21, 0, 3, 0.00,60.00,WinterDesignDay
268,18.000000000000005
308,18.000000000000005
348,18.000000000000595
388,18.00000000000058
428,18.000000000076967
2,1, 1,21, 0, 4, 0.00,10.00,WinterDesignDay
8,-36.2
10,8316021.123987721
542,117029204.95986572
579,0.0
2,1, 1,21, 0, 4,10.00,20.00,WinterDesignDay
8,-36.2
10,8316021.123987721
542,117203766.05281092
579,0.0
2,1, 1,21, 0, 4,20.00,30.00,WinterDesignDay
8,-36.2
10,8316021.123987721
542,117312552.5454714
579,0.0
2,1, 1,21, 0, 4,30.00,40.00,WinterDesignDay
8,-36.2
10,8316021.123987721
542,117417949.31244198
579,0.0
2,1, 1,21, 0, 4,40.00,50.00,WinterDesignDay
8,-36.2
10,8316021.123987721
542,117506673.13782344
579,0.0
2,1, 1,21, 0, 4,50.00,60.00,WinterDesignDay
8,-36.2
10,8316021.123987721
542,117567445.03188142
579,0.0
2,1, 1,21, 0, 4, 0.00,60.00,WinterDesignDay
268,18.000000000000005
308,18.000000000000005
348,18.000000000000005
388,18.00000000000001
428,18.00000000000002
2,1, 1,21, 0, 5, 0.00,10.00,WinterDesignDay
8,-36.2
10,8316021.123987721
542,117619440.44824025
579,0.0
2,1, 1,21, 0, 5,10.00,20.00,WinterDesignDay
8,-36.2
10,8316021.123987721
542,117666473.696522
579,0.0
2,1, 1,21, 0, 5,20.00,30.00,WinterDesignDay
8,-36.2
10,8316021.123987721
542,117706841.11635095
579,0.0
2,1, 1,21, 0, 5,30.00,40.00,WinterDesignDay
8,-36.2
10,8316021.123987721
542,117740855.72016476
579,0.0
2,1, 1,21, 0, 5,40.00,50.00,WinterDesignDay
8,-36.2
10,8316021.123987721
542,117769362.85538838
579,0.0
2,1, 1,21, 0, 5,50.00,60.00,WinterDesignDay
8,-36.2
10,8316021.123987721
542,117793255.41224575
579,0.0
2,1, 1,21, 0, 5, 0.00,60.00,WinterDesignDay
268,18.000000000000005
308,18.000000000000005
348,18.000000000000005
388,18.000000000000005
428,18.000000000000015
2,1, 1,21, 0, 6, 0.00,10.00,WinterDesignDay
8,-36.2
10,8316021.123987721
542,117813329.98075716
579,0.0
2,1, 1,21, 0, 6,10.00,20.00,WinterDesignDay
8,-36.2
10,8316021.123987721
542,117830257.83393511
579,0.0
2,1, 1,21, 0, 6,20.00,30.00,WinterDesignDay
8,-36.2
10,8316021.123987721
542,117840466.02295901
579,0.0
2,1, 1,21, 0, 6,30.00,40.00,WinterDesignDay
8,-36.2
10,8316021.123987721
542,117848883.67540013
579,0.0
2,1, 1,21, 0, 6,40.00,50.00,WinterDesignDay
8,-36.2
10,8316021.123987721
542,117857383.69774109
579,0.0
2,1, 1,21, 0, 6,50.00,60.00,WinterDesignDay
8,-36.2
10,8316021.123987721
542,117865456.46529755
579,0.0
2,1, 1,21, 0, 6, 0.00,60.00,WinterDesignDay
268,18.000000000000005
308,18.000000000000005
348,18.000000000000005
388,18.000000000000005
428,18.000000000000015
2,1, 1,21, 0, 7, 0.00,10.00,WinterDesignDay
8,-36.2
10,10382271.771358904
542,116572174.07368955
579,0.0
2,1, 1,21, 0, 7,10.00,20.00,WinterDesignDay
8,-36.2
10,10382271.771358904
542,116372536.67539667
579,0.0
2,1, 1,21, 0, 7,20.00,30.00,WinterDesignDay
8,-36.2
10,10382271.771358904
542,116377551.76995921
579,0.0
2,1, 1,21, 0, 7,30.00,40.00,WinterDesignDay
8,-36.2
10,10382271.771358904
542,116353023.87351944
579,0.0
2,1, 1,21, 0, 7,40.00,50.00,WinterDesignDay
8,-36.2
10,10382271.771358904
542,116329028.01491684
579,0.0
2,1, 1,21, 0, 7,50.00,60.00,WinterDesignDay
8,-36.2
10,10382271.771358904
542,116308357.50942335
579,0.0
2,1, 1,21, 0, 7, 0.00,60.00,WinterDesignDay
268,18.000000000000005
308,18.0
348,18.000000000000005
388,18.000000000000005
428,18.00000000000001
2,1, 1,21, 0, 8, 0.00,10.00,WinterDesignDay
8,-36.2
10,13749495.048556386
542,252675896.4642313
579,0.0
2,1, 1,21, 0, 8,10.00,20.00,WinterDesignDay
8,-36.2
10,13749495.048556386
542,6478657.574727069
579,0.0
2,1, 1,21, 0, 8,20.00,30.00,WinterDesignDay
8,-36.2
10,13749495.048556386
542,172278555.52245269
579,0.0
2,1, 1,21, 0, 8,30.00,40.00,WinterDesignDay
8,-36.2
10,13749495.048556386
542,132303684.80614795
579,0.0
2,1, 1,21, 0, 8,40.00,50.00,WinterDesignDay
8,-36.2
10,13749495.048556386
542,131221544.86958799
579,0.0
2,1, 1,21, 0, 8,50.00,60.00,WinterDesignDay
8,-36.2
10,13749495.048556386
542,131169721.21966146
579,0.0
2,1, 1,21, 0, 8, 0.00,60.00,WinterDesignDay
268,20.037987534959556
308,20.037353888921193
348,20.039576399293897
388,20.052547634540223
428,20.07946346180434
2,1, 1,21, 0, 9, 0.00,10.00,WinterDesignDay
8,-36.2
10,19514589.447394499
542,256133155.8561848
579,0.0
2,1, 1,21, 0, 9,10.00,20.00,WinterDesignDay
8,-36.2
10,19514589.447394499
542,17181124.888185469
579,0.0
2,1, 1,21, 0, 9,20.00,30.00,WinterDesignDay
8,-36.2
10,19514589.447394499
542,189345824.83946363
579,0.0
2,1, 1,21, 0, 9,30.00,40.00,WinterDesignDay
8,-36.2
10,19514589.447394499
542,140581144.17912186
579,0.0
2,1, 1,21, 0, 9,40.00,50.00,WinterDesignDay
8,-36.2
10,19514589.447394499
542,142515099.09652177
579,0.0
2,1, 1,21, 0, 9,50.00,60.00,WinterDesignDay
8,-36.2
10,19514589.447394499
542,141529331.1034907
579,0.0
2,1, 1,21, 0, 9, 0.00,60.00,WinterDesignDay
268,22.036867644045559
308,22.037462068657744
348,22.038443062817007
388,22.037330216295787
428,22.039853816218004
2,1, 1,21, 0,10, 0.00,10.00,WinterDesignDay
8,-36.2
10,23570562.940382378
542,137153157.32369498
579,0.0
2,1, 1,21, 0,10,10.00,20.00,WinterDesignDay
8,-36.2
10,23570562.940382378