Program Version,EnergyPlus, Version 8.9.0-eba93e8e1b, YMD=2019.03.28 14:11
1,5,Environment Title[],Latitude[deg],Longitude[deg],Time Zone[],Elevation[m]
2,8,Day of Simulation[],Month[],Day of Month[],DST Indicator[1=yes 0=no],Hour[],StartMinute[],EndMinute[],DayType
3,5,Cumulative Day of Simulation[],Month[],Day of Month[],DST Indicator[1=yes 0=no],DayType  ! When Daily Report Variables Requested
4,2,Cumulative Days of Simulation[],Month[]  ! When Monthly Report Variables Requested
5,1,Cumulative Days of Simulation[] ! When Run Period Report Variables Requested
6,1,Calendar Year of Simulation[] ! When Annual Report Variables Requested
7,9,Environment,Site Outdoor Air Drybulb Temperature [C] !Monthly [Value,Min,Day,Hour,Minute,Max,Day,Hour,Minute]
8,1,Environment,Site Outdoor Air Wetbulb Temperature [C] !TimeStep
1125,1,SP-WHOLEBUILDING-AUTOMOTIVE FACILITY SYS-4 FLR-4 SCH-E HPLCMT-SOUTH ZN,Zone Air Temperature [C] !Hourly
1126,7,SP-WHOLEBUILDING-AUTOMOTIVE FACILITY SYS-4 FLR-4 SCH-E HPLCMT-SOUTH ZN,Zone Air Relative Humidity [%] !Daily [Value,Min,Hour,Minute,Max,Hour,Minute]
1165,1,SP-WHOLEBUILDING-CONVENTION CENTRE SYS-3 FLR-3 SCH-C HPLCMT-CORE ZN,Zone Air Temperature [C] !Hourly
1166,7,SP-WHOLEBUILDING-CONVENTION CENTRE SYS-3 FLR-3 SCH-C HPLCMT-CORE ZN,Zone Air Relative Humidity [%] !Daily [Value,Min,Hour,Minute,Max,Hour,Minute]
1205,1,SP-WHOLEBUILDING-COURTHOUSE SYS-3 FLR-3 SCH-A HPLCMT-EAST ZN,Zone Air Temperature [C] !Hourly
1206,7,SP-WHOLEBUILDING-COURTHOUSE SYS-3 FLR-3 SCH-A HPLCMT-EAST ZN,Zone Air Relative Humidity [%] !Daily [Value,Min,Hour,Minute,Max,Hour,Minute]
1245,1,SP-WHOLEBUILDING-DINING - BAR LOUNGE/LEISURE SYS-3 FLR-3 SCH-B HPLCMT-NORTH ZN,Zone Air Temperature [C] !Hourly
1246,7,SP-WHOLEBUILDING-DINING - BAR LOUNGE/LEISURE SYS-3 FLR-3 SCH-B HPLCMT-NORTH ZN,Zone Air Relative Humidity [%] !Daily [Value,Min,Hour,Minute,Max,Hour,Minute]
1285,1,SP-WHOLEBUILDING-DINING - CAFETERIA/FAST FOOD SYS-3 FLR-1 SCH-B HPLCMT-WEST ZN,Zone Air Temperature [C] !Hourly
1286,7,SP-WHOLEBUILDING-DINING - CAFETERIA/FAST FOOD SYS-3 FLR-1 SCH-B HPLCMT-WEST ZN,Zone Air Relative Humidity [%] !Daily [Value,Min,Hour,Minute,Max,Hour,Minute]
1325,1,SP-WHOLEBUILDING-DINING - FAMILY SYS-3 FLR-4 SCH-B HPLCMT-CORE ZN,Zone Air Temperature [C] !Hourly
1326,7,SP-WHOLEBUILDING-DINING - FAMILY SYS-3 FLR-4 SCH-B HPLCMT-CORE ZN,Zone Air Relative Humidity [%] !Daily [Value,Min,Hour,Minute,Max,Hour,Minute]
1365,1,SP-WHOLEBUILDING-DORMITORY SYS-3 FLR-3 SCH-G HPLCMT-SOUTH ZN,Zone Air Temperature [C] !Hourly
1366,7,SP-WHOLEBUILDING-DORMITORY SYS-3 FLR-3 SCH-G HPLCMT-SOUTH ZN,Zone Air Relative Humidity [%] !Daily [Value,Min,Hour,Minute,Max,Hour,Minute]
1405,1,SP-WHOLEBUILDING-EXERCISE CENTRE SYS-6 FLR-2 SCH-B HPLCMT-SOUTH ZN,Zone Air Temperature [C] !Hourly
1406,7,SP-WHOLEBUILDING-EXERCISE CENTRE SYS-6 FLR-2 SCH-B HPLCMT-SOUTH ZN,Zone Air Relative Humidity [%] !Daily [Value,Min,Hour,Minute,Max,Hour,Minute]
1445,1,SP-WHOLEBUILDING-FIRE STATION SYS-4 FLR-1 SCH-F HPLCMT-NORTH ZN,Zone Air Temperature [C] !Hourly
1446,7,SP-WHOLEBUILDING-FIRE STATION SYS-4 FLR-1 SCH-F HPLCMT-NORTH ZN,Zone Air Relative Humidity [%] !Daily [Value,Min,Hour,Minute,Max,Hour,Minute]
1485,1,SP-WHOLEBUILDING-GYMNASIUM SYS-6 FLR-4 SCH-B HPLCMT-WEST ZN,Zone Air Temperature [C] !Hourly
1486,7,SP-WHOLEBUILDING-GYMNASIUM SYS-6 FLR-4 SCH-B HPLCMT-WEST ZN,Zone Air Relative Humidity [%] !Daily [Value,Min,Hour,Minute,Max,Hour,Minute]
1525,1,SP-WHOLEBUILDING-HEALTH CARE CLINIC SYS-6 FLR-2 SCH-A HPLCMT-CORE ZN,Zone Air Temperature [C] !Hourly
1526,7,SP-WHOLEBUILDING-HEALTH CARE CLINIC SYS-6 FLR-2 SCH-A HPLCMT-CORE ZN,Zone Air Relative Humidity [%] !Daily [Value,Min,Hour,Minute,Max,Hour,Minute]
1565,1,SP-WHOLEBUILDING-HOSPITAL SYS-3 FLR-4 SCH-H HPLCMT-EAST ZN,Zone Air Temperature [C] !Hourly
1566,7,SP-WHOLEBUILDING-HOSPITAL SYS-3 FLR-4 SCH-H HPLCMT-EAST ZN,Zone Air Relative Humidity [%] !Daily [Value,Min,Hour,Minute,Max,Hour,Minute]
1605,1,SP-WHOLEBUILDING-HOTEL/MOTEL SYS-1 FLR-4 SCH-F HPLCMT-NORTH ZN,Zone Air Temperature [C] !Hourly
1606,7,SP-WHOLEBUILDING-HOTEL/MOTEL SYS-1 FLR-4 SCH-F HPLCMT-NORTH ZN,Zone Air Relative Humidity [%] !Daily [Value,Min,Hour,Minute,Max,Hour,Minute]
1645,1,SP-WHOLEBUILDING-LIBRARY SYS-2 FLR-1 SCH-C HPLCMT-SOUTH ZN,Zone Air Temperature [C] !Hourly
1646,7,SP-WHOLEBUILDING-LIBRARY SYS-2 FLR-1 SCH-C HPLCMT-SOUTH ZN,Zone Air Relative Humidity [%] !Daily [Value,Min,Hour,Minute,Max,Hour,Minute]
1685,1,SP-WHOLEBUILDING-LONG-TERM CARE - DWELLING UNITS SYS-1 FLR-1 SCH-J HPLCMT-EAST ZN,Zone Air Temperature [C] !Hourly
1686,7,SP-WHOLEBUILDING-LONG-TERM CARE - DWELLING UNITS SYS-1 FLR-1 SCH-J HPLCMT-EAST ZN,Zone Air Relative Humidity [%] !Daily [Value,Min,Hour,Minute,Max,Hour,Minute]
1725,1,SP-WHOLEBUILDING-LONG-TERM CARE - OTHER SYS-1 FLR-2 SCH-B HPLCMT-WEST ZN,Zone Air Temperature [C] !Hourly
1726,7,SP-WHOLEBUILDING-LONG-TERM CARE - OTHER SYS-1 FLR-2 SCH-B HPLCMT-WEST ZN,Zone Air Relative Humidity [%] !Daily [Value,Min,Hour,Minute,Max,Hour,Minute]
1765,1,SP-WHOLEBUILDING-MANUFACTURING FACILITY SYS-3 FLR-3 SCH-A HPLCMT-WEST ZN,Zone Air Temperature [C] !Hourly
1766,7,SP-WHOLEBUILDING-MANUFACTURING FACILITY SYS-3 FLR-3 SCH-A HPLCMT-WEST ZN,Zone Air Relative Humidity [%] !Daily [Value,Min,Hour,Minute,Max,Hour,Minute]
1805,1,SP-WHOLEBUILDING-MOTION PICTURE THEATRE SYS-3 FLR-1 SCH-C HPLCMT-CORE ZN,Zone Air Temperature [C] !Hourly
1806,7,SP-WHOLEBUILDING-MOTION PICTURE THEATRE SYS-3 FLR-1 SCH-C HPLCMT-CORE ZN,Zone Air Relative Humidity [%] !Daily [Value,Min,Hour,Minute,Max,Hour,Minute]
1845,1,SP-WHOLEBUILDING-MULTI-UNIT RESIDENTIAL BUILDING SYS-1 FLR-2 SCH-G HPLCMT-NORTH ZN,Zone Air Temperature [C] !Hourly
1846,7,SP-WHOLEBUILDING-MULTI-UNIT RESIDENTIAL BUILDING SYS-1 FLR-2 SCH-G HPLCMT-NORTH ZN,Zone Air Relative Humidity [%] !Daily [Value,Min,Hour,Minute,Max,Hour,Minute]
1885,1,SP-WHOLEBUILDING-MUSEUM SYS-2 FLR-2 SCH-C HPLCMT-EAST ZN,Zone Air Temperature [C] !Hourly
1886,7,SP-WHOLEBUILDING-MUSEUM SYS-2 FLR-2 SCH-C HPLCMT-EAST ZN,Zone Air Relative Humidity [%] !Daily [Value,Min,Hour,Minute,Max,Hour,Minute]
10,1,Electricity:Facility [J] !TimeStep
891,1,Gas:Facility [J] !TimeStep
End of Data Dictionary
1,FORT MCMURRAY AP ANN CLG .4% CONDNS DB=>MWB,  56.65,-111.22,  -7.00, 369.10
2,1, 7,21, 0, 1, 0.00,10.00,SummerDesignDay
8,14.218136923962174
10,148601588.98568798
891,85683797.15001337
2,1, 7,21, 0, 1,10.00,20.00,SummerDesignDay
8,14.171982153293495
10,146054031.42156057
891,99080901.74107367
2,1, 7,21, 0, 1,20.00,30.00,SummerDesignDay
8,14.125744780286427
10,145293097.71817447
891,122704188.83233066
2,1, 7,21, 0, 1,30.00,40.00,SummerDesignDay
8,14.079436086331978
10,144537748.5555514
891,123187983.30083293
2,1, 7,21, 0, 1,40.00,50.00,SummerDesignDay
8,14.033050387896898
10,143775418.9238188
891,109849270.09667737
2,1, 7,21, 0, 1,50.00,60.00,SummerDesignDay
8,13.986581233564835
10,143016833.11020578
891,76874198.80260383
2,1, 7,21, 0, 1, 0.00,60.00,SummerDesignDay
1125,22.849337599846178
1165,24.156351439723648
1205,25.665777351075105
1245,23.997533436968089
1285,23.99758181211904
1325,23.99885596286435
1365,23.99914771877287
1405,23.998444607310707
1445,23.918631966042626
1485,23.93791623250983
1525,22.904047404191535
1565,23.999111837435526
1605,23.887838623023556
1645,23.09143725486312
1685,23.8425930007686
1725,23.848284526478893
1765,24.80345287283103
1805,23.53921800580569
1845,23.902401594423833
1885,23.733359198039705
2,1, 7,21, 0, 2, 0.00,10.00,SummerDesignDay
8,13.95555882260429
10,101125873.31158525
891,115971610.77666055
2,1, 7,21, 0, 2,10.00,20.00,SummerDesignDay
8,13.924507755336454
10,100541189.12081021
891,72851849.04149695
2,1, 7,21, 0, 2,20.00,30.00,SummerDesignDay
8,13.893416042989206
10,100354699.62816596
891,102075190.98285048
2,1, 7,21, 0, 2,30.00,40.00,SummerDesignDay
8,13.862289589689029
10,101221782.66410849
891,83228592.39289366
2,1, 7,21, 0, 2,40.00,50.00,SummerDesignDay
8,13.831134407608739
10,99139725.627101
891,92774410.95381679
2,1, 7,21, 0, 2,50.00,60.00,SummerDesignDay
8,13.799938415548118
10,99694402.06309903
891,93352273.8633184
2,1, 7,21, 0, 2, 0.00,60.00,SummerDesignDay
1125,22.463806629046247
1165,23.956351460308527
1205,25.46966750043279
1245,23.937309604683553
1285,23.700548178715363
1325,23.420543268659956
1365,23.99958854904982
1405,24.188236739862018
1445,23.64178897997459
1485,23.21896585127025
1525,22.8386354859235
1565,24.005341687035555
1605,23.912153638338699
1645,22.842992293442664
1685,23.876994379974236
1725,25.131961693290035
1765,24.524758945872234
1805,23.347196610785173
1845,23.92389503473511
1885,23.47331600662504
2,1, 7,21, 0, 3, 0.00,10.00,SummerDesignDay
8,13.776521671948676
10,74107292.9454376
891,23930465.92701167
2,1, 7,21, 0, 3,10.00,20.00,SummerDesignDay
8,13.753085235778466
10,73816644.94228825
891,51753729.56520196
2,1, 7,21, 0, 3,20.00,30.00,SummerDesignDay
8,13.729636002354969
10,73621380.40494994
891,4888910.507022189
2,1, 7,21, 0, 3,30.00,40.00,SummerDesignDay
8,13.706147375533054
10,73425506.6022812
891,52021212.473565358
2,1, 7,21, 0, 3,40.00,50.00,SummerDesignDay
8,13.682651961920304
10,73237869.2526807
891,52494179.0608104
2,1, 7,21, 0, 3,50.00,60.00,SummerDesignDay
8,13.659136670643687
10,73038078.3469142
891,4965715.3936172579
2,1, 7,21, 0, 3, 0.00,60.00,SummerDesignDay
1125,22.112303186266219
1165,23.767213310146656
1205,25.293145987842395
1245,23.304041123070119
1285,22.98298694012485
1325,22.36826904726964
1365,23.999553671633323
1405,23.772940462523655
1445,23.409741139141106
1485,22.17201947032959
1525,22.769294166839925
1565,23.91261217146707
1605,23.886827206617743
1645,22.630262328617225
1685,23.841609163313725
1725,25.132190755381914
1765,24.27455402834399
1805,23.17364132106303
1845,23.902016995218437
1885,23.2568039216752
2,1, 7,21, 0, 4, 0.00,10.00,SummerDesignDay
8,13.63560137410855
10,71181634.10803268
891,52322893.136144299
2,1, 7,21, 0, 4,10.00,20.00,SummerDesignDay
8,13.612040802606578
10,70878533.82517559
891,5348313.72179808
2,1, 7,21, 0, 4,20.00,30.00,SummerDesignDay
8,13.58846620506876
10,70737178.21122088
891,52631279.888118
2,1, 7,21, 0, 4,30.00,40.00,SummerDesignDay
8,13.56487178447336
10,70595160.50290285
891,5730911.556668234
2,1, 7,21, 0, 4,40.00,50.00,SummerDesignDay
8,13.541257354069103
10,70452901.76377622
891,52972721.81002624
2,1, 7,21, 0, 4,50.00,60.00,SummerDesignDay
8,13.517617463812285
10,70312029.52648758
891,6113508.772017001
2,1, 7,21, 0, 4, 0.00,60.00,SummerDesignDay
1125,21.795324314682536
1165,23.57907075528763
1205,25.133500471315445
1245,22.929357753077768
1285,22.597154964572554
1325,21.71140913374549
1365,23.999620646343023
1405,23.478674477244927
1445,23.188108001730006
1485,21.55159363021815
1525,22.695385831600217
1565,23.661214261740157
1605,23.85782988751855
1645,22.44164234595487
1685,23.84111914838137
1725,24.81938434551463
1765,24.034611266966228
1805,23.02200599665858
1845,23.901773639203353
1885,23.06773652645373
2,1, 7,21, 0, 5, 0.00,10.00,SummerDesignDay
8,13.50185415824011
10,70191278.12149698
891,53253117.56501222
2,1, 7,21, 0, 5,10.00,20.00,SummerDesignDay
8,13.486076034032447
10,70182197.85773424
891,6374986.131688517
2,1, 7,21, 0, 5,20.00,30.00,SummerDesignDay
8,13.470289340350983
10,70152425.98639152
891,53458381.89216034
2,1, 7,21, 0, 5,30.00,40.00,SummerDesignDay
8,13.454493322631063
10,70193153.71288945
891,6630050.492766238
2,1, 7,21, 0, 5,40.00,50.00,SummerDesignDay
8,13.438688835118548
10,70739521.60120802
891,53657213.28276283
2,1, 7,21, 0, 5,50.00,60.00,SummerDesignDay
8,13.422888173889437
10,70534600.47815788
891,22185918.730796946
2,1, 7,21, 0, 5, 0.00,60.00,SummerDesignDay
1125,21.558203570135789
1165,23.389983043763747
1205,25.07673203222188
1245,22.78280023060188
1285,22.398903049082298
1325,21.42070168475605
1365,23.999669419401113
1405,23.359384395740169
1445,23.030070879873745
1485,21.30850813078219
1525,22.620566675946255
1565,23.635016667540858
1605,23.84307671304253
1645,22.267611391593645
1685,23.84060755092661
1725,24.714195284097959
1765,23.802284466350689
1805,22.882899543355746
1845,23.901744801489988
1885,22.983856331068258
2,1, 7,21, 0, 6, 0.00,10.00,SummerDesignDay
8,13.438688835118548
10,72593354.73493786
891,39076969.009165298
2,1, 7,21, 0, 6,10.00,20.00,SummerDesignDay
8,13.454493322631063
10,74002873.21007142
891,54634775.500176098
2,1, 7,21, 0, 6,20.00,30.00,SummerDesignDay
8,13.470289340350983
10,74321841.37827647
891,6528055.4194048759
2,1, 7,21, 0, 6,30.00,40.00,SummerDesignDay
8,13.486076034032447
10,74898733.89142777
891,54230960.02207614
2,1, 7,21, 0, 6,40.00,50.00,SummerDesignDay
8,13.50185415824011
10,75406410.15249297
891,54270192.01170262
2,1, 7,21, 0, 6,50.00,60.00,SummerDesignDay
8,13.517617463812285
10,75861042.63877943
891,6145458.709853816
2,1, 7,21, 0, 6, 0.00,60.00,SummerDesignDay
1125,21.586141716159259
1165,23.256551693449656
1205,25.445638657204925
1245,22.78124568040155
1285,22.286308788560519
1325,21.4040619034115
1365,23.999692418488015
1405,23.278287508908055
1445,22.993858376223998
1485,21.329097403977728
1525,22.552308941023303
1565,23.993779002842428
1605,23.888494551112854
1645,22.184297782839125
1685,23.840373929361538
1725,24.63911630986839
1765,23.652630311678878
1805,22.79084595776892
1845,23.902237009749784
1885,23.28365948738634
2,1, 7,21, 0, 7, 0.00,10.00,SummerDesignDay
8,13.572736920571789
10,88662992.68583495
891,58130688.34760262
2,1, 7,21, 0, 7,10.00,20.00,SummerDesignDay
8,13.627748229152554
10,89703200.72009412
891,80815377.10042106
2,1, 7,21, 0, 7,20.00,30.00,SummerDesignDay
8,13.682651961920304
10,89871709.69517005
891,78972314.26934609
2,1, 7,21, 0, 7,30.00,40.00,SummerDesignDay
8,13.737448093244995
10,90510865.35758671
891,57722142.06962295
2,1, 7,21, 0, 7,40.00,50.00,SummerDesignDay
8,13.792137011831216
10,91681190.45155701
891,55044288.59315186
2,1, 7,21, 0, 7,50.00,60.00,SummerDesignDay
8,13.846719282840333
10,92352787.46842107
891,54606128.740599278
2,1, 7,21, 0, 7, 0.00,60.00,SummerDesignDay
1125,21.921953947805237
1165,23.2425991661427
1205,24.058657326484466
1245,22.814670035206054
1285,22.33528977587058
1325,21.69629898914265
1365,23.999637456261654
1405,23.223118644286335
1445,23.1630635189516
1485,21.52407817953956
1525,22.493203259448508
1565,23.998391967157784
1605,23.90925538357608
1645,22.26081380173854
1685,23.870099466408964
1725,24.582033396013768
1765,23.65519397055294
1805,22.799830006294227
1845,23.921130380767467
1885,23.73198985453976
2,1, 7,21, 0, 8, 0.00,10.00,SummerDesignDay
8,13.978831900527043
10,124440844.78027328
891,77895041.91848308
2,1, 7,21, 0, 8,10.00,20.00,SummerDesignDay
8,14.110321014287419
10,127274622.93998085
891,104088091.11692919
2,1, 7,21, 0, 8,20.00,30.00,SummerDesignDay
8,14.241191509616986
10,129887327.11495374
891,119881813.66192386
2,1, 7,21, 0, 8,30.00,40.00,SummerDesignDay
8,14.371447531304272
10,131018424.44358234
891,116922701.75247558
2,1, 7,21, 0, 8,40.00,50.00,SummerDesignDay
8,14.501093766564925
10,132456100.17166724
891,62625865.04918207
2,1, 7,21, 0, 8,50.00,60.00,SummerDesignDay
8,14.630134792273804
10,131165960.41673775
891,119522285.88076513
2,1, 7,21, 0, 8, 0.00,60.00,SummerDesignDay
1125,22.727701535752787
1165,23.41347103463839
1205,23.99960925860803
1245,23.13753438134737
1285,22.659749935717838
1325,22.478996019003053
1365,23.998813122659983
1405,23.182446689745875
1445,23.597329771410867
1485,21.9710675342924
1525,22.695662709449988
1565,23.99782959476371
1605,23.889617112456564
1645,22.57385272622759
1685,23.840740233376918
1725,24.53388803649221
1765,23.96403848393147
1805,22.974928866868937
1845,23.90076325765405
1885,23.750207394425077
2,1, 7,21, 0, 9, 0.00,10.00,SummerDesignDay
8,14.773641492809972
10,203396746.97034578
891,125472989.98820754
2,1, 7,21, 0, 9,10.00,20.00,SummerDesignDay
8,14.91640948124148
10,204536046.0500243
891,126747953.0013395
2,1, 7,21, 0, 9,20.00,30.00,SummerDesignDay
8,15.05843890714102
10,212660380.3422726
891,126559812.63286582
2,1, 7,21, 0, 9,30.00,40.00,SummerDesignDay
8,15.199735893563798
10,213775056.8765378
891,113712997.03592699
2,1, 7,21, 0, 9,40.00,50.00,SummerDesignDay
8,15.340306256439395
10,218275750.53002668
891,102135840.83387004
2,1, 7,21, 0, 9,50.00,60.00,SummerDesignDay
8,15.48015101768072
10,223970109.6776148
891,101550675.37487577
2,1, 7,21, 0, 9, 0.00,60.00,SummerDesignDay
1125,23.88639131264922
1165,23.93815729855064
1205,23.999152101237894
1245,23.723339624242553
1285,23.24153694126632
1325,23.58761386542281
1365,23.998730212705607
1405,23.198205839595745
1445,23.97243984339437
1485,22.59882258106757
1525,23.60968307754149
1565,23.99817973797801
1605,23.909804831752479
1645,23.462403995712849
1685,23.869257006077477
1725,23.857261226922206
1765,23.99957282191899
1805,23.70280572064142
1845,23.918306994327979
1885,23.90284859248639
2,1, 7,21, 0,10, 0.00,10.00,SummerDesignDay
8,15.60467292907716
10,279040881.63973316
891,195333007.25153063
2,1, 7,21, 0,10,10.00,20.00,SummerDesignDay
8,15.72862731650033
10,284307777.6858071
891,202094721.94648005
2,1, 7,21, 0,10,20.00,30.00,SummerDesignDay
8,15.852017409284228
10,288826869.8598391
891,168947171.14532254
2,1, 7,21, 0,10,30.00,40.00,SummerDesignDay
8,15.974848118364367
10,295340669.5902453
891,163884561.40568558
2,1, 7,21, 0,10,40.00,50.00,SummerDesignDay
8,16.097123145563505
10,296974072.31553187
891,178171441.66797427
2,1, 7,21, 0,10,50.00,60.00,SummerDesignDay
8,16.218846351168599
10,301675574.1810306
891,202158118.88922189
2,1, 7,21, 0,10, 0.00,60.00,SummerDesignDay
1125,23.999470262578116
1165,23.999723543119229
1205,23.998839275906179
1245,23.999480977750538
1285,23.966914773484374
1325,23.999387863563077
1365,23.998888856068079
1405,23.754420673373017
1445,23.999034701220265
1485,23.745765497392115
1525,23.999453095544284
1565,23.998324646926098
1605,23.90749836741043
1645,23.99961256462957
1685,23.865267864902106
1725,23.86933670797231
1765,23.99947544911788
1805,23.999750195159977
1845,23.91576937795519
1885,23.998698323761294
2,1, 7,21, 0,11, 0.00,10.00,SummerDesignDay
8,16.325793027093189
10,325804126.57735428
891,191813655.40463604
2,1, 7,21, 0,11,10.00,20.00,SummerDesignDay
8,16.432322158488288
10,329270924.95182988
891,162205041.4350899
2,1, 7,21, 0,11,20.00,30.00,SummerDesignDay
8,16.538424180249178
10,332616083.5047312
891,162390214.65855376
2,1, 7,21, 0,11,30.00,40.00,SummerDesignDay
8,16.644108396469087
10,335874882.84420338
891,187234046.00120736
2,1, 7,21, 0,11,40.00,50.00,SummerDesignDay
8,16.749376736593655
10,339148985.3020782
891,199967611.66819117
2,1, 7,21, 0,11,50.00,60.00,SummerDesignDay
8,16.854232613237156
10,342394678.07317808
891,181077776.91645343
2,1, 7,21, 0,11, 0.00,60.00,SummerDesignDay
1125,23.998841262275716
1165,23.999311631149565
1205,23.99846233415838
1245,23.99874274832261
1285,23.999004844858335
1325,23.998614126746756
1365,23.998443780663405
1405,23.99921465043047
1445,23.999110397501739
1485,23.999167771793638
1525,23.99907124267484
1565,23.998291328834197
1605,23.892994970728794
1645,24.058919670299799
1685,23.84245141933685
1725,23.846535053940788
1765,23.99932193272481
1805,23.99932297618012
1845,23.90108205187624
1885,24.094172818501847
2,1, 7,21, 0,12, 0.00,10.00,SummerDesignDay
8,16.92390823520069
10,360465822.48749026
891,136806456.61516483
2,1, 7,21, 0,12,10.00,20.00,SummerDesignDay
8,16.99340178950456
10,361168742.21683958
891,134503750.17219264
2,1, 7,21, 0,12,20.00,30.00,SummerDesignDay
8,17.06272006743463
10,363612880.5350628
891,134510603.79913897
2,1, 7,21, 0,12,30.00,40.00,SummerDesignDay
8,17.131853229172639
10,365992878.842676
891,134513278.25484539
2,1, 7,21, 0,12,40.00,50.00,SummerDesignDay
8,17.200807172194087
10,368328291.9212206
891,134515772.968025
2,1, 7,21, 0,12,50.00,60.00,SummerDesignDay
8,17.269582116758607
10,370610117.28327539
891,134518255.24795855
2,1, 7,21, 0,12, 0.00,60.00,SummerDesignDay
1125,23.99860645177597
1165,23.99902216427077
1205,23.998326423526966
1245,23.998184598496925
1285,23.998478871243333
1325,23.998066770111014
1365,23.998395544788449
1405,23.998684863012746
1445,23.99934941248794
1485,23.998893629676507
1525,23.99882584521976
1565,23.99844208341216
1605,23.893998199232283
1645,24.10543145838351
1685,23.84284293129748
1725,23.84680211821677
1765,23.99922777730741
1805,23.999037094142069
1845,23.90148593523953
1885,24.171694004554966
2,1, 7,21, 0,13, 0.00,10.00,SummerDesignDay
8,17.32447360221357
10,374968951.917456
891,144710958.7472447
2,1, 7,21, 0,13,10.00,20.00,SummerDesignDay
8,17.379251291230806
10,377696488.7669073
891,146001306.8247854
2,1, 7,21, 0,13,20.00,30.00,SummerDesignDay
8,17.433921312061729
10,379674294.8283153
891,146076939.14381234
2,1, 7,21, 0,13,30.00,40.00,SummerDesignDay
8,17.488473222557489
10,381686849.80450078
891,169839947.35112248
2,1, 7,21, 0,13,40.00,50.00,SummerDesignDay
8,17.542913447755134
10,383654083.95908769
891,170221870.55683456
2,1, 7,21, 0,13,50.00,60.00,SummerDesignDay
8,17.59724609886134
10,385542018.3705057
891,170101701.37194626
2,1, 7,21, 0,13, 0.00,60.00,SummerDesignDay
1125,23.998573786330984
1165,23.998453156333559
1205,23.998510611204666
1245,23.997527001763534
1285,23.9978068475188
1325,23.99747088656714
1365,23.998581348990006
1405,23.998329721574767
1445,23.999493317653699
1485,23.998479409305817
1525,23.99887030135119
1565,23.99850672291493
1605,23.89450780504191
1645,24.138647479342074
1685,23.84293977963074
1725,23.847066818298335
1765,23.999287662541634
1805,23.99843018322704
1845,23.9018537048365
1885,24.228429554821319
2,1, 7,21, 0,14, 0.00,10.00,SummerDesignDay
8,17.6311450462694
10,386114199.7392176
891,156768140.6136866
2,1, 7,21, 0,14,10.00,20.00,SummerDesignDay
8,17.665000449016245
10,388120067.1787733
891,157268427.40145628
2,1, 7,21, 0,14,20.00,30.00,SummerDesignDay
8,17.698812743128934
10,389506325.9372241
891,160321551.48080284
2,1, 7,21, 0,14,30.00,40.00,SummerDesignDay
8,17.732582050940107
10,391000124.97376528
891,192395442.93399746
2,1, 7,21, 0,14,40.00,50.00,SummerDesignDay
8,17.766307345121004
10,392621328.95074817
891,192249905.35651056
2,1, 7,21, 0,14,50.00,60.00,SummerDesignDay
8,17.79999023167558
10,394324187.5156212
891,162974593.81892295
2,1, 7,21, 0,14, 0.00,60.00,SummerDesignDay
1125,23.99843444394553
1165,23.997942533004435
1205,23.9986192587585
1245,23.996915733254544
1285,23.997270405487595
1325,23.997081696130356
1365,23.998760525261618
1405,23.998189181534604
1445,23.99950683528859
1485,23.998285342669616
1525,23.99891591141569
1565,23.9984050834005
1605,23.89474789751338
1645,24.162029303907287
1685,23.84297372504447
1725,23.847288568477496
1765,23.999323339340877
1805,23.997925486414588
1845,23.90209447898508
1885,24.268697176224806
2,1, 7,21, 0,15, 0.00,10.00,SummerDesignDay
8,17.79999023167558
10,392445831.28468927
891,157946678.8979685
2,1, 7,21, 0,15,10.00,20.00,SummerDesignDay
8,17.79999023167558
10,393398976.2243932
891,158509268.16046409
2,1, 7,21, 0,15,20.00,30.00,SummerDesignDay
8,17.79999023167558
10,394280754.4195236
891,193648302.52537079
2,1, 7,21, 0,15,30.00,40.00,SummerDesignDay
8,17.79999023167558
10,395204858.147976
891,193508871.43407906
2,1, 7,21, 0,15,40.00,50.00,SummerDesignDay
8,17.79999023167558
10,396110068.8668442
891,165775750.42444016
2,1, 7,21, 0,15,50.00,60.00,SummerDesignDay
8,17.79999023167558
10,396952010.3666368
891,158017792.89708845
2,1, 7,21, 0,15, 0.00,60.00,SummerDesignDay
1125,23.998568979698903
1165,23.99766059470465
1205,23.99832503909509
1245,23.997082900468127
1285,23.997569888179233
1325,23.997278116427073
1365,23.998844562251376
1405,23.99840938623319
1445,23.999525419256658
1485,23.998360100302095
1525,23.99879684139174
1565,23.99835528088001
1605,23.894658420527369
1645,24.16952550497123
1685,23.842996133025637
1725,23.848863503454497
1765,23.999090372476556
1805,23.99762822101843
1845,23.902175816224657
1885,24.2825732453552
2,1, 7,21, 0,16, 0.00,10.00,SummerDesignDay
8,17.759562446305357
10,392317112.6606128
891,147897962.64111803
2,1, 7,21, 0,16,10.00,20.00,SummerDesignDay
8,17.71907809634183
10,390977443.1917213
891,158612807.7291703
2,1, 7,21, 0,16,20.00,30.00,SummerDesignDay
8,17.67853788661001
10,390155114.42839339
891,172137882.52849246
2,1, 7,21, 0,16,30.00,40.00,SummerDesignDay
8,17.63791796367351
10,389159509.5699396
891,172018187.08439473
2,1, 7,21, 0,16,40.00,50.00,SummerDesignDay
8,17.59724609886134
10,388032689.12104859
891,157766071.65177263
2,1, 7,21, 0,16,50.00,60.00,SummerDesignDay
8,17.55650676726033
10,386801113.4653419
891,146656203.51800073
2,1, 7,21, 0,16, 0.00,60.00,SummerDesignDay
1125,23.998655490636336
1165,23.997452237237714
1205,23.998076350688164
1245,23.997894089327674
1285,23.998347026125207
1325,23.998105842156805
1365,23.998652507960896
1405,23.998828629441879
1445,23.999598303540215
1485,23.998815700886067
1525,23.998716953296577
1565,23.9983742543794
1605,23.89443005649315
1645,24.155961401115709
1685,23.843010761827327
1725,23.850883562577449
1765,23.99876483544796
1805,23.99740658331277
1845,23.901951992492127
1885,24.2613800120817
2,1, 7,21, 0,17, 0.00,10.00,SummerDesignDay
8,17.50209486331892
10,386704760.5895354
891,136063710.72784
2,1, 7,21, 0,17,10.00,20.00,SummerDesignDay
8,17.447570789624618
10,384066657.86807
891,134992758.26378433
2,1, 7,21, 0,17,20.00,30.00,SummerDesignDay
8,17.392929544208135
10,382301971.61940059
891,134998012.53215433
2,1, 7,21, 0,17,30.00,40.00,SummerDesignDay
8,17.33818013976614
10,380514071.8882221
891,135002008.5724074
2,1, 7,21, 0,17,40.00,50.00,SummerDesignDay
8,17.283317298559309
10,378696811.66264167
891,135005941.74160994
2,1, 7,21, 0,17,50.00,60.00,SummerDesignDay
8,17.22833552437677
10,376815806.6889019
891,135009851.44170726
2,1, 7,21, 0,17, 0.00,60.00,SummerDesignDay
1125,23.99873796548812
1165,23.997133363953805
1205,23.998031977999888
1245,23.99851113930964
1285,23.99884500917008
1325,23.99875217672556
1365,23.99833823394911
1405,23.999104722203187
1445,23.99963527459946
1485,23.999253428621484
1525,23.99872397077414
1565,23.998380020667367
1605,23.893866126911634
1645,24.12854472924907
1685,23.84296141722341
1725,23.852460605895389
1765,23.998593454434304
1805,23.99703289524027
1845,23.901598960279715
1885,24.21641460570986
2,1, 7,21, 0,18, 0.00,10.00,SummerDesignDay
8,17.159453019160176
10,368078285.92454949
891,134271077.15994907
2,1, 7,21, 0,18,10.00,20.00,SummerDesignDay
8,17.090391773337136
10,365734054.88018986
891,134190548.82748243
2,1, 7,21, 0,18,20.00,30.00,SummerDesignDay
8,17.021151077964786
10,363260150.5275153
891,134191840.95686803
2,1, 7,21, 0,18,30.00,40.00,SummerDesignDay
8,16.951729380464653
10,360752461.89856788
891,134193148.98435898
2,1, 7,21, 0,18,40.00,50.00,SummerDesignDay
8,16.882126503829249
10,358239657.10131987
891,134194452.30529759
2,1, 7,21, 0,18,50.00,60.00,SummerDesignDay
8,16.812341807494034
10,355679134.3115115
891,134195750.06598585
2,1, 7,21, 0,18, 0.00,60.00,SummerDesignDay
1125,23.998970035557539
1165,23.997289081662684
1205,23.998339530815838
1245,23.998590386526769
1285,23.998866160363084
1325,23.998958655459665
1365,23.99798702613734
1405,23.99918231647581
1445,23.99958108587383
1485,23.999372546410397
1525,23.998910875523796
1565,23.998414451738979
1605,23.893006476439529
1645,24.093992348357547
1685,23.84291991752893
1725,23.853362525758809
1765,23.99870399168918
1805,23.997211384369178
1845,23.901243962576165
1885,24.15895196041684
2,1, 7,21, 0,19, 0.00,10.00,SummerDesignDay
8,16.707321072823203
10,328816175.94323089
891,135784177.72831304
2,1, 7,21, 0,19,10.00,20.00,SummerDesignDay
8,16.601881826644556
10,325167576.57654628
891,135970317.6104737
2,1, 7,21, 0,19,20.00,30.00,SummerDesignDay
8,16.496030555252849
10,321632459.9451413
891,135977835.7307295
2,1, 7,21, 0,19,30.00,40.00,SummerDesignDay
8,16.389760181474104
10,318066692.6004465
891,135985180.74626587
2,1, 7,21, 0,19,40.00,50.00,SummerDesignDay
8,16.283067654262039
10,314530853.480007
891,135992466.99555023
2,1, 7,21, 0,19,50.00,60.00,SummerDesignDay
8,16.17595057957811
10,311007364.73581269
891,135999699.78713513
2,1, 7,21, 0,19, 0.00,60.00,SummerDesignDay
1125,23.999653391496087
1165,23.997863551512315
1205,23.999048643800504
1245,23.998031336245849
1285,23.99827178054365
1325,23.998675807210078
1365,23.997068764351284
1405,23.99897603261893
1445,23.999552125019439
1485,23.999179905254484
1525,23.999343675427768
1565,23.998533682391459
1605,23.892083733704074
1645,24.046017705458124
1685,23.842866407804619
1725,23.853331756072597
1765,23.999220836957645
1805,23.997835337943856
1845,23.900607584209927
1885,24.078376467540904
2,1, 7,21, 0,20, 0.00,10.00,SummerDesignDay
8,16.097123145563505
10,291018678.02444109
891,134982540.87421385
2,1, 7,21, 0,20,10.00,20.00,SummerDesignDay
8,16.018070242471564
10,289084834.57363346
891,134870547.86021263
2,1, 7,21, 0,20,20.00,30.00,SummerDesignDay
8,15.938779752340516
10,288187768.7113078
891,134872908.26885719
2,1, 7,21, 0,20,30.00,40.00,SummerDesignDay
8,15.85926152575189
10,283762137.8937321
891,135568267.71901984
2,1, 7,21, 0,20,40.00,50.00,SummerDesignDay
8,15.779503718563929
10,281801783.45678946
891,137942749.9169545
2,1, 7,21, 0,20,50.00,60.00,SummerDesignDay
8,15.699515709672767
10,278674997.4919444
891,137950303.29020069
2,1, 7,21, 0,20, 0.00,60.00,SummerDesignDay
1125,25.02912372344235
1165,23.9989778649859
1205,23.99959714672426
1245,23.99721426079111
1285,23.99749047439605
1325,23.998311137361367
1365,23.997059158045574
1405,23.998718035256095
1445,23.99935762423694
1485,23.99897610579878
1525,23.63990872421061
1565,23.99889798693543
1605,23.907579610272735
1645,23.996619559481887
1685,23.866069952167228
1725,23.873690420385228
1765,23.999707528410906
1805,23.999027749265179
1845,23.916046560328735
1885,23.994818738491675
2,1, 7,21, 0,21, 0.00,10.00,SummerDesignDay
8,15.63389147320404
10,271691207.0768816
891,194867956.26097218
2,1, 7,21, 0,21,10.00,20.00,SummerDesignDay
8,15.56810827419793
10,270636103.7107162
891,198293677.44013409
2,1, 7,21, 0,21,20.00,30.00,SummerDesignDay
8,15.502170882753524
10,267818314.5252803
891,161939643.63396386
2,1, 7,21, 0,21,30.00,40.00,SummerDesignDay
8,15.436068032613852
10,265036682.25451399