Program Version,EnergyPlus, Version 8.9.0-eba93e8e1b, YMD=2019.03.20 18:00
1,5,Environment Title[],Latitude[deg],Longitude[deg],Time Zone[],Elevation[m]
2,8,Day of Simulation[],Month[],Day of Month[],DST Indicator[1=yes 0=no],Hour[],StartMinute[],EndMinute[],DayType
3,5,Cumulative Day of Simulation[],Month[],Day of Month[],DST Indicator[1=yes 0=no],DayType  ! When Daily Report Variables Requested
4,2,Cumulative Days of Simulation[],Month[]  ! When Monthly Report Variables Requested
5,1,Cumulative Days of Simulation[] ! When Run Period Report Variables Requested
6,1,Calendar Year of Simulation[] ! When Annual Report Variables Requested
7,9,Environment,Site Outdoor Air Drybulb Temperature [C] !Monthly [Value,Min,Day,Hour,Minute,Max,Day,Hour,Minute]
8,1,Environment,Site Outdoor Air Wetbulb Temperature [C] !TimeStep
969,1,ALL_ST=MFG - DETAILED_FL=STORY 1_SCH=A,Zone Air Temperature [C] !Hourly
970,7,ALL_ST=MFG - DETAILED_FL=STORY 1_SCH=A,Zone Air Relative Humidity [%] !Daily [Value,Min,Hour,Minute,Max,Hour,Minute]
1009,1,ALL_ST=MFG - EQUIPMENT_FL=STORY 4_SCH=A,Zone Air Temperature [C] !Hourly
1010,7,ALL_ST=MFG - EQUIPMENT_FL=STORY 4_SCH=A,Zone Air Relative Humidity [%] !Daily [Value,Min,Hour,Minute,Max,Hour,Minute]
1049,1,ALL_ST=MUSEUM - EXHIBITION_FL=STORY 1_SCH=C,Zone Air Temperature [C] !Hourly
1050,7,ALL_ST=MUSEUM - EXHIBITION_FL=STORY 1_SCH=C,Zone Air Relative Humidity [%] !Daily [Value,Min,Hour,Minute,Max,Hour,Minute]
1089,1,ALL_ST=MUSEUM - RESTORATION_FL=STORY 2_SCH=A,Zone Air Temperature [C] !Hourly
1090,7,ALL_ST=MUSEUM - RESTORATION_FL=STORY 2_SCH=A,Zone Air Relative Humidity [%] !Daily [Value,Min,Hour,Minute,Max,Hour,Minute]
1129,1,ALL_ST=OFFICE - ENCLOSED - OCCSENS_FL=STORY 2_SCH=A,Zone Air Temperature [C] !Hourly
1130,7,ALL_ST=OFFICE - ENCLOSED - OCCSENS_FL=STORY 2_SCH=A,Zone Air Relative Humidity [%] !Daily [Value,Min,Hour,Minute,Max,Hour,Minute]
1169,1,ALL_ST=OFFICE - ENCLOSED_FL=STORY 1_SCH=A,Zone Air Temperature [C] !Hourly
1170,7,ALL_ST=OFFICE - ENCLOSED_FL=STORY 1_SCH=A,Zone Air Relative Humidity [%] !Daily [Value,Min,Hour,Minute,Max,Hour,Minute]
1209,1,ALL_ST=OFFICE - OPEN PLAN_FL=STORY 1_SCH=A,Zone Air Temperature [C] !Hourly
1210,7,ALL_ST=OFFICE - OPEN PLAN_FL=STORY 1_SCH=A,Zone Air Relative Humidity [%] !Daily [Value,Min,Hour,Minute,Max,Hour,Minute]
1249,1,ALL_ST=PARKING GARAGE SPACE_FL=STORY 2_SCH=H,Zone Air Temperature [C] !Hourly
1250,7,ALL_ST=PARKING GARAGE SPACE_FL=STORY 2_SCH=H,Zone Air Relative Humidity [%] !Daily [Value,Min,Hour,Minute,Max,Hour,Minute]
1289,1,ALL_ST=PENITENTIARY - AUDIENCE_FL=STORY 2_SCH=C,Zone Air Temperature [C] !Hourly
1290,7,ALL_ST=PENITENTIARY - AUDIENCE_FL=STORY 2_SCH=C,Zone Air Relative Humidity [%] !Daily [Value,Min,Hour,Minute,Max,Hour,Minute]
1329,1,ALL_ST=PENITENTIARY - CLASSROOM_FL=STORY 2_SCH=D,Zone Air Temperature [C] !Hourly
1330,7,ALL_ST=PENITENTIARY - CLASSROOM_FL=STORY 2_SCH=D,Zone Air Relative Humidity [%] !Daily [Value,Min,Hour,Minute,Max,Hour,Minute]
1369,1,WILD_ST=MFG - CORR. < 2.4M-SCH-I_FL=STORY 4_SCH=A,Zone Air Temperature [C] !Hourly
1370,7,WILD_ST=MFG - CORR. < 2.4M-SCH-I_FL=STORY 4_SCH=A,Zone Air Relative Humidity [%] !Daily [Value,Min,Hour,Minute,Max,Hour,Minute]
1409,1,WILD_ST=MFG - CORR. >= 2.4M-SCH-A_FL=STORY 4_SCH=A,Zone Air Temperature [C] !Hourly
1410,7,WILD_ST=MFG - CORR. >= 2.4M-SCH-A_FL=STORY 4_SCH=A,Zone Air Relative Humidity [%] !Daily [Value,Min,Hour,Minute,Max,Hour,Minute]
1449,1,WILD_ST=MFG - CORR. >= 2.4M-SCH-B_FL=STORY 3_SCH=A,Zone Air Temperature [C] !Hourly
1450,7,WILD_ST=MFG - CORR. >= 2.4M-SCH-B_FL=STORY 3_SCH=A,Zone Air Relative Humidity [%] !Daily [Value,Min,Hour,Minute,Max,Hour,Minute]
1489,1,WILD_ST=MFG - CORR. >= 2.4M-SCH-C_FL=STORY 3_SCH=A,Zone Air Temperature [C] !Hourly
1490,7,WILD_ST=MFG - CORR. >= 2.4M-SCH-C_FL=STORY 3_SCH=A,Zone Air Relative Humidity [%] !Daily [Value,Min,Hour,Minute,Max,Hour,Minute]
1529,1,WILD_ST=MFG - CORR. >= 2.4M-SCH-D_FL=STORY 4_SCH=A,Zone Air Temperature [C] !Hourly
1530,7,WILD_ST=MFG - CORR. >= 2.4M-SCH-D_FL=STORY 4_SCH=A,Zone Air Relative Humidity [%] !Daily [Value,Min,Hour,Minute,Max,Hour,Minute]
1569,1,WILD_ST=MFG - CORR. >= 2.4M-SCH-E_FL=STORY 3_SCH=A,Zone Air Temperature [C] !Hourly
1570,7,WILD_ST=MFG - CORR. >= 2.4M-SCH-E_FL=STORY 3_SCH=A,Zone Air Relative Humidity [%] !Daily [Value,Min,Hour,Minute,Max,Hour,Minute]
1609,1,WILD_ST=MFG - CORR. >= 2.4M-SCH-F_FL=STORY 3_SCH=A,Zone Air Temperature [C] !Hourly
1610,7,WILD_ST=MFG - CORR. >= 2.4M-SCH-F_FL=STORY 3_SCH=A,Zone Air Relative Humidity [%] !Daily [Value,Min,Hour,Minute,Max,Hour,Minute]
1649,1,WILD_ST=MFG - CORR. >= 2.4M-SCH-G_FL=STORY 3_SCH=A,Zone Air Temperature [C] !Hourly
1650,7,WILD_ST=MFG - CORR. >= 2.4M-SCH-G_FL=STORY 3_SCH=A,Zone Air Relative Humidity [%] !Daily [Value,Min,Hour,Minute,Max,Hour,Minute]
1689,1,WILD_ST=MFG - CORR. >= 2.4M-SCH-H_FL=STORY 1_SCH=A,Zone Air Temperature [C] !Hourly
1690,7,WILD_ST=MFG - CORR. >= 2.4M-SCH-H_FL=STORY 1_SCH=A,Zone Air Relative Humidity [%] !Daily [Value,Min,Hour,Minute,Max,Hour,Minute]
1729,1,WILD_ST=MFG - CORR. >= 2.4M-SCH-I_FL=STORY 4_SCH=A,Zone Air Temperature [C] !Hourly
1730,7,WILD_ST=MFG - CORR. >= 2.4M-SCH-I_FL=STORY 4_SCH=A,Zone Air Relative Humidity [%] !Daily [Value,Min,Hour,Minute,Max,Hour,Minute]
10,1,Electricity:Facility [J] !TimeStep
735,1,Gas:Facility [J] !TimeStep
End of Data Dictionary
1,FORT MCMURRAY AP ANN CLG .4% CONDNS DB=>MWB,  56.65,-111.22,  -7.00, 369.10
2,1, 7,21, 0, 1, 0.00,10.00,SummerDesignDay
8,14.218136923962174
10,45508976.943651858
735,12000.0
2,1, 7,21, 0, 1,10.00,20.00,SummerDesignDay
8,14.171982153293495
10,45508957.310317408
735,1249282.6729144932
2,1, 7,21, 0, 1,20.00,30.00,SummerDesignDay
8,14.125744780286427
10,45508938.23865089
735,1675956.1910667248
2,1, 7,21, 0, 1,30.00,40.00,SummerDesignDay
8,14.079436086331978
10,45508919.34311575
735,2305229.7893833147
2,1, 7,21, 0, 1,40.00,50.00,SummerDesignDay
8,14.033050387896898
10,45508900.50714442
735,6776851.594889807
2,1, 7,21, 0, 1,50.00,60.00,SummerDesignDay
8,13.986581233564835
10,45508881.69498919
735,20486174.8514913
2,1, 7,21, 0, 1, 0.00,60.00,SummerDesignDay
969,22.84328732533564
1009,22.974081202151539
1049,21.253503968012294
1089,22.69267134873017
1129,23.36000090156396
1169,23.242861719268836
1209,23.122427152028555
1249,22.005171637268118
1289,22.46092709874772
1329,22.323972733207599
1369,21.472397366614186
1409,21.89391429971909
1449,23.26771069250921
1489,23.848927052502309
1529,21.767016592060913
1569,23.604359685454189
1609,23.17467800064023
1649,23.79191225728644
1689,22.888837686695365
1729,21.62035309306478
2,1, 7,21, 0, 2, 0.00,10.00,SummerDesignDay
8,13.95555882260429
10,45508862.894836608
735,12000.0
2,1, 7,21, 0, 2,10.00,20.00,SummerDesignDay
8,13.924507755336454
10,45508848.79943014
735,12000.0
2,1, 7,21, 0, 2,20.00,30.00,SummerDesignDay
8,13.893416042989206
10,45508835.8086
735,12000.0
2,1, 7,21, 0, 2,30.00,40.00,SummerDesignDay
8,13.862289589689029
10,45508823.155355509
735,12000.0
2,1, 7,21, 0, 2,40.00,50.00,SummerDesignDay
8,13.831134407608739
10,45508810.602300729
735,20683208.673138128
2,1, 7,21, 0, 2,50.00,60.00,SummerDesignDay
8,13.799938415548118
10,45508798.08369148
735,12000.0
2,1, 7,21, 0, 2, 0.00,60.00,SummerDesignDay
969,22.540321908455696
1009,22.502535025261748
1049,20.821936272578367
1089,22.38692217507359
1129,23.230252453221075
1169,23.141731653762276
1209,23.025586661110095
1249,21.580707839799215
1289,22.100230842376666
1329,21.929773755971295
1369,21.024900334271974
1409,21.404631806852068
1449,22.983308315719684
1489,23.51062794666161
1529,21.295346049510646
1569,23.269391232949947
1609,22.874549257066865
1649,23.426937501624495
1689,22.64813881279151
1729,21.169974110266386
2,1, 7,21, 0, 3, 0.00,10.00,SummerDesignDay
8,13.776521671948676
10,45508785.57620478
735,12000.0
2,1, 7,21, 0, 3,10.00,20.00,SummerDesignDay
8,13.753085235778466
10,45508775.41824508
735,12000.0
2,1, 7,21, 0, 3,20.00,30.00,SummerDesignDay
8,13.729636002354969
10,45508765.81182797
735,12000.0
2,1, 7,21, 0, 3,30.00,40.00,SummerDesignDay
8,13.706147375533054
10,45508756.37647125
735,20790932.38827585
2,1, 7,21, 0, 3,40.00,50.00,SummerDesignDay
8,13.682651961920304
10,45508746.98710065
735,12000.0
2,1, 7,21, 0, 3,50.00,60.00,SummerDesignDay
8,13.659136670643687
10,45508737.61676692
735,12000.0
2,1, 7,21, 0, 3, 0.00,60.00,SummerDesignDay
969,22.292434192858424
1009,22.121125741999067
1049,20.489279733063289
1089,22.146492297471736
1129,23.100492042054048
1169,23.043630436531385
1209,22.93148753013563
1249,21.262663089413377
1289,21.806397889756526
1329,21.619306868676547
1369,20.67463938604122
1409,21.01526434786618
1449,22.739250376751625
1489,23.216202474673165
1529,20.92077662846467
1569,22.977862532797585
1609,22.615776537895817
1649,23.11319447191637
1689,22.45507489683916
1729,20.81258499023258
2,1, 7,21, 0, 4, 0.00,10.00,SummerDesignDay
8,13.63560137410855
10,45508728.253221269
735,12000.0
2,1, 7,21, 0, 4,10.00,20.00,SummerDesignDay
8,13.612040802606578
10,45508718.89350329
735,12000.0
2,1, 7,21, 0, 4,20.00,30.00,SummerDesignDay
8,13.58846620506876
10,45508709.535323429
735,20897122.285731667
2,1, 7,21, 0, 4,30.00,40.00,SummerDesignDay
8,13.56487178447336
10,45508700.180816899
735,12000.0
2,1, 7,21, 0, 4,40.00,50.00,SummerDesignDay
8,13.541257354069103
10,45503906.332533579
735,12000.0
2,1, 7,21, 0, 4,50.00,60.00,SummerDesignDay
8,13.517617463812285
10,45469135.28907148
735,12000.0
2,1, 7,21, 0, 4, 0.00,60.00,SummerDesignDay
969,22.066807571839595
1009,21.790409046732916
1049,20.1938967718448
1089,21.93151076511015
1129,22.96921380434063
1169,22.9461112661364
1209,22.83590239418849
1249,21.02396931152425
1289,21.537250372549609
1329,21.338736881980919
1369,20.371315551496804
1409,20.674891409483597
1449,22.511737407505995
1489,22.940092817301005
1529,20.593993697758298
1569,22.704507252161137
1609,22.37322342166465
1649,22.82235705806147
1689,22.282292097488808
1729,20.501907495558535
2,1, 7,21, 0, 5, 0.00,10.00,SummerDesignDay
8,13.50185415824011
10,45444173.65139791
735,12000.0
2,1, 7,21, 0, 5,10.00,20.00,SummerDesignDay
8,13.486076034032447
10,45420309.28555263
735,21005532.24273243
2,1, 7,21, 0, 5,20.00,30.00,SummerDesignDay
8,13.470289340350983
10,45396563.55701486
735,12000.0
2,1, 7,21, 0, 5,30.00,40.00,SummerDesignDay
8,13.454493322631063
10,45372935.532082039
735,12000.0
2,1, 7,21, 0, 5,40.00,50.00,SummerDesignDay
8,13.438688835118548
10,45349380.26760613
735,12000.0
2,1, 7,21, 0, 5,50.00,60.00,SummerDesignDay
8,13.422888173889437
10,45325855.01267606
735,12000.0
2,1, 7,21, 0, 5, 0.00,60.00,SummerDesignDay
969,21.854839900494708
1009,21.543484238939297
1049,19.928489496683804
1089,21.73313455597308
1129,22.843656597970705
1169,22.84863465314814
1209,22.739779328949806
1249,20.862166896900907
1289,21.382699205611748
1329,21.086630805507288
1369,20.144341936388654
1409,20.42388193856523
1449,22.296470453045087
1489,22.684790861702415
1529,20.529386466323126
1569,22.54724311953767
1609,22.204966724189644
1649,22.556140440683849
1689,22.12201439778525
1729,20.38476377870463
2,1, 7,21, 0, 6, 0.00,10.00,SummerDesignDay
8,13.438688835118548
10,45341865.251078929
735,14335818.545895582
2,1, 7,21, 0, 6,10.00,20.00,SummerDesignDay
8,13.454493322631063
10,45362431.68162725
735,6563513.783512916
2,1, 7,21, 0, 6,20.00,30.00,SummerDesignDay
8,13.470289340350983
10,45383106.04428043
735,12000.0
2,1, 7,21, 0, 6,30.00,40.00,SummerDesignDay
8,13.486076034032447
10,45403835.10236361
735,12000.0
2,1, 7,21, 0, 6,40.00,50.00,SummerDesignDay
8,13.50185415824011
10,45424584.48824207
735,12000.0
2,1, 7,21, 0, 6,50.00,60.00,SummerDesignDay
8,13.517617463812285
10,45445340.69795472
735,2011065.5553350868
2,1, 7,21, 0, 6, 0.00,60.00,SummerDesignDay
969,21.7193527923064
1009,21.582751265987459
1049,19.8219267107559
1089,21.629508462838265
1129,22.740290477408818
1169,22.751452944216536
1209,22.64965971773104
1249,20.854513648034695
1289,21.629119509711204
1329,20.972510680181356
1369,20.20381459259853
1409,20.47849116382022
1449,22.166365737390167
1489,22.537521221690694
1529,21.303011549665219
1569,22.820357342867565
1609,22.175550210255495
1649,22.403660714235305
1689,22.038690417228439
1729,20.651245319010508
2,1, 7,21, 0, 7, 0.00,10.00,SummerDesignDay
8,13.572736920571789
10,45508507.45592059
735,18628389.703390346
2,1, 7,21, 0, 7,10.00,20.00,SummerDesignDay
8,13.627748229152554
10,45508633.52912018
735,12000.0
2,1, 7,21, 0, 7,20.00,30.00,SummerDesignDay
8,13.682651961920304
10,45508690.59982751
735,12000.0
2,1, 7,21, 0, 7,30.00,40.00,SummerDesignDay
8,13.737448093244995
10,45508722.401724789
735,12000.0
2,1, 7,21, 0, 7,40.00,50.00,SummerDesignDay
8,13.792137011831216
10,45508747.163921739
735,12000.0
2,1, 7,21, 0, 7,50.00,60.00,SummerDesignDay
8,13.846719282840333
10,45508769.87187929
735,20697409.156360728
2,1, 7,21, 0, 7, 0.00,60.00,SummerDesignDay
969,21.747609676491668
1009,21.997603604520326
1049,20.027712543643515
1089,21.714567802197988
1129,22.650991229938759
1169,22.657713535832156
1209,22.569590562114035
1249,20.96860604750627
1289,22.077415873458734
1329,21.107079743430835
1369,20.649403202895678
1409,20.915032138418863
1449,22.187034798358359
1489,22.560954269465339
1529,22.40784346781751
1569,23.28443879959761
1609,22.16684671268685
1649,22.428122931913337
1689,22.095655206495495
1729,21.01045965469152
2,1, 7,21, 0, 8, 0.00,10.00,SummerDesignDay
8,13.978831900527043
10,87978598.58820239
735,183263889.19238625
2,1, 7,21, 0, 8,10.00,20.00,SummerDesignDay
8,14.110321014287419
10,86151059.67096788
735,434696.0020139939
2,1, 7,21, 0, 8,20.00,30.00,SummerDesignDay
8,14.241191509616986
10,86417875.47789654
735,6465079.944858217
2,1, 7,21, 0, 8,30.00,40.00,SummerDesignDay
8,14.371447531304272
10,86346997.52275665
735,14927312.095869016
2,1, 7,21, 0, 8,40.00,50.00,SummerDesignDay
8,14.501093766564925
10,86471452.68305497
735,12000.0
2,1, 7,21, 0, 8,50.00,60.00,SummerDesignDay
8,14.630134792273804
10,88612790.2264041
735,12000.0
2,1, 7,21, 0, 8, 0.00,60.00,SummerDesignDay
969,22.37933533168773
1009,23.343753760761787
1049,20.73083677198912
1089,22.36575368723541
1129,22.863563686705079
1169,22.93648244401537
1209,22.85002566372924
1249,21.487904304977506
1289,22.74931580191608
1329,21.647282508785478
1369,22.307738259210379
1409,22.629798110876839
1449,22.851758293888954
1489,23.277900335995253
1529,24.482196020987208
1569,24.292480838467509
1609,22.82098792897816
1649,23.18401590586399
1689,22.79480901400557
1729,22.571180609270625
2,1, 7,21, 0, 9, 0.00,10.00,SummerDesignDay
8,14.773641492809972
10,204990454.0078663
735,38474906.57467451
2,1, 7,21, 0, 9,10.00,20.00,SummerDesignDay
8,14.91640948124148
10,205866062.21941797
735,31974516.363659368
2,1, 7,21, 0, 9,20.00,30.00,SummerDesignDay
8,15.05843890714102
10,209460267.59472827
735,31901934.2122091
2,1, 7,21, 0, 9,30.00,40.00,SummerDesignDay
8,15.199735893563798
10,228751895.42430005
735,31879874.33381506
2,1, 7,21, 0, 9,40.00,50.00,SummerDesignDay
8,15.340306256439395
10,236413888.6813674
735,31955776.017478967
2,1, 7,21, 0, 9,50.00,60.00,SummerDesignDay
8,15.48015101768072
10,242131235.85562698
735,26918985.967207068
2,1, 7,21, 0, 9, 0.00,60.00,SummerDesignDay
969,23.68825513158433
1009,23.999424186532609
1049,22.60210491152962
1089,23.696782134406438
1129,23.84385077577407
1169,23.90072314000408
1209,23.87747506893292
1249,22.503293206430955
1289,23.844177333284596
1329,23.07233549293001
1369,23.7018452370969
1409,23.807123385542679
1449,23.203301301952
1489,23.624799768801286
1529,25.878327885489357
1569,24.833203247299634
1609,23.194601669317906
1649,23.493513707621223
1689,23.17302336240736
1729,23.893872177409283
2,1, 7,21, 0,10, 0.00,10.00,SummerDesignDay
8,15.60467292907716
10,301193178.89339229
735,27594078.123532446
2,1, 7,21, 0,10,10.00,20.00,SummerDesignDay
8,15.72862731650033
10,310471439.08761796
735,28252027.487173376
2,1, 7,21, 0,10,20.00,30.00,SummerDesignDay
8,15.852017409284228
10,318828206.5175664
735,28365335.492063308
2,1, 7,21, 0,10,30.00,40.00,SummerDesignDay
8,15.974848118364367
10,325243855.9262539
735,28216097.04620268
2,1, 7,21, 0,10,40.00,50.00,SummerDesignDay
8,16.097123145563505
10,331577932.7945914
735,28997482.625955155
2,1, 7,21, 0,10,50.00,60.00,SummerDesignDay
8,16.218846351168599
10,339071303.02593
735,33965710.29204224
2,1, 7,21, 0,10, 0.00,60.00,SummerDesignDay
969,23.99951064998949
1009,23.999191070069349
1049,23.891112782995675
1089,23.99226541758313
1129,23.999545298207129
1169,23.99945921270887
1209,23.999473692941938
1249,23.61342782391644
1289,23.99950322103261
1329,23.99555165009387
1369,23.999745444860975
1409,23.780931522198178
1449,22.81676893255191
1489,23.326260748249358
1529,25.893062998723708
1569,24.502149801358198
1609,22.85445631972104
1649,22.99867581308803
1689,22.763482690417307
1729,24.173499477718975
2,1, 7,21, 0,11, 0.00,10.00,SummerDesignDay
8,16.325793027093189
10,346302474.81660827
735,66966579.607142407
2,1, 7,21, 0,11,10.00,20.00,SummerDesignDay
8,16.432322158488288
10,353413749.7845303
735,51767591.25274862
2,1, 7,21, 0,11,20.00,30.00,SummerDesignDay
8,16.538424180249178
10,359239103.77052089
735,48109414.29955401
2,1, 7,21, 0,11,30.00,40.00,SummerDesignDay
8,16.644108396469087
10,364943989.20080849
735,50387354.18438198
2,1, 7,21, 0,11,40.00,50.00,SummerDesignDay
8,16.749376736593655
10,370514058.7822357
735,72306668.24426861
2,1, 7,21, 0,11,50.00,60.00,SummerDesignDay
8,16.854232613237156
10,375911470.48443999
735,48145581.55114464
2,1, 7,21, 0,11, 0.00,60.00,SummerDesignDay
969,23.999351114649114
1009,23.99892279683728
1049,24.18756550419532
1089,24.102590328315899
1129,23.9991031353118
1169,23.999027066037667
1209,23.999048977335766
1249,23.999837847424585
1289,23.998904358717217
1329,23.9973090926192
1369,23.99972983152932
1409,23.55271267967518
1449,22.390611013272815
1489,23.181821862993748
1529,25.27307810160812
1569,23.918782257331505
1609,22.481303850486623
1649,22.526246738943344
1689,22.242902039675419
1729,24.161838402435035
2,1, 7,21, 0,12, 0.00,10.00,SummerDesignDay
8,16.92390823520069
10,380276756.7868292
735,49255095.83861839
2,1, 7,21, 0,12,10.00,20.00,SummerDesignDay
8,16.99340178950456
10,387747922.1503512
735,72649107.5285667
2,1, 7,21, 0,12,20.00,30.00,SummerDesignDay
8,17.06272006743463
10,388782471.89336988
735,51432581.56882676
2,1, 7,21, 0,12,30.00,40.00,SummerDesignDay
8,17.131853229172639
10,395831479.8660852
735,49377118.91902992
2,1, 7,21, 0,12,40.00,50.00,SummerDesignDay
8,17.200807172194087
10,396504353.0185684
735,74651864.85550237
2,1, 7,21, 0,12,50.00,60.00,SummerDesignDay
8,17.269582116758607
10,400086002.628534
735,49437508.44870519
2,1, 7,21, 0,12, 0.00,60.00,SummerDesignDay
969,23.999279659144617
1009,23.99876272457175
1049,24.37084431225456
1089,24.19414297508605
1129,23.99884703557268
1169,23.998771896209644
1209,23.99879113622031
1249,24.000079109154546
1289,23.998562815599344
1329,23.996754813820844
1369,23.999824693006017
1409,23.39624716781753
1449,22.162259032386009
1489,23.254358857265279
1529,24.574396991823947
1569,23.432409890074728
1609,22.28837764671196
1649,22.25582111493074
1689,21.940168709662115
1729,24.142055867637795
2,1, 7,21, 0,13, 0.00,10.00,SummerDesignDay
8,17.32447360221357
10,403205406.81068369
735,74651864.85550237
2,1, 7,21, 0,13,10.00,20.00,SummerDesignDay
8,17.379251291230806
10,402980913.3807733
735,53492307.54045218
2,1, 7,21, 0,13,20.00,30.00,SummerDesignDay
8,17.433921312061729
10,405591244.83610859
735,74651864.85550237
2,1, 7,21, 0,13,30.00,40.00,SummerDesignDay
8,17.488473222557489
10,411180436.7397271
735,74651864.85550237
2,1, 7,21, 0,13,40.00,50.00,SummerDesignDay
8,17.542913447755134
10,410495607.1399873
735,74651864.85550237
2,1, 7,21, 0,13,50.00,60.00,SummerDesignDay
8,17.59724609886134
10,412808249.25527086
735,53491532.68075913
2,1, 7,21, 0,13, 0.00,60.00,SummerDesignDay
969,23.999312157036454
1009,23.99888501437762
1049,24.501965289707799
1089,24.26075592726761
1129,23.99891064926012
1169,23.998855814618414
1209,23.998868737311385
1249,24.000008923308003
1289,23.99770638953215
1329,23.996674824168737
1369,23.999978523357347
1409,23.304118404881764
1449,22.063171354323939
1489,23.37851910799537
1529,24.24208855777015
1569,23.222855532963309
1609,22.21205901958868
1649,22.128049876704425
1689,21.748479780418177
1729,24.123663987084858
2,1, 7,21, 0,14, 0.00,10.00,SummerDesignDay
8,17.6311450462694
10,414279069.6601242
735,74651864.85550237
2,1, 7,21, 0,14,10.00,20.00,SummerDesignDay
8,17.665000449016245
10,418671072.23703357
735,74651864.85550237
2,1, 7,21, 0,14,20.00,30.00,SummerDesignDay
8,17.698812743128934
10,417428079.5576652
735,74651864.85550237
2,1, 7,21, 0,14,30.00,40.00,SummerDesignDay
8,17.732582050940107
10,418709380.13365247
735,53491651.82553098
2,1, 7,21, 0,14,40.00,50.00,SummerDesignDay
8,17.766307345121004
10,419885297.6045074
735,74651864.85550237
2,1, 7,21, 0,14,50.00,60.00,SummerDesignDay
8,17.79999023167558
10,424042529.67644026
735,74651864.85550237
2,1, 7,21, 0,14, 0.00,60.00,SummerDesignDay
969,23.999294704401718
1009,23.99901736378467
1049,24.59388793988454
1089,24.30740085507968
1129,23.998945239399615
1169,23.9988910019689
1209,23.99889289062158
1249,23.999998807391948
1289,23.99693551634728
1329,23.99659007737372
1369,23.999985989959027
1409,23.32964797116576
1449,22.090489559374395
1489,23.50506214972241
1529,24.11723119112632
1569,23.190376684227187
1609,22.25308701982627
1649,22.16405658547771
1689,21.662699792350563
1729,24.105008165112055
2,1, 7,21, 0,15, 0.00,10.00,SummerDesignDay
8,17.79999023167558
10,424620600.60626128
735,74651864.85550237
2,1, 7,21, 0,15,10.00,20.00,SummerDesignDay
8,17.79999023167558
10,424686145.87251916
735,53491771.28934007
2,1, 7,21, 0,15,20.00,30.00,SummerDesignDay
8,17.79999023167558
10,424630153.0818508
735,74651864.85550237
2,1, 7,21, 0,15,30.00,40.00,SummerDesignDay
8,17.79999023167558
10,427531637.4313816
735,74651864.85550237
2,1, 7,21, 0,15,40.00,50.00,SummerDesignDay
8,17.79999023167558
10,424200222.27554258
735,74651864.85550237
2,1, 7,21, 0,15,50.00,60.00,SummerDesignDay
8,17.79999023167558
10,423879851.27981576
735,53491891.08208204
2,1, 7,21, 0,15, 0.00,60.00,SummerDesignDay
969,23.999134968363064
1009,23.99896391598594
1049,24.62257200248018
1089,24.32201681718183
1129,23.998705172954489
1169,23.998725498607496
1209,23.99872141304599
1249,23.9999982177637
1289,23.996779985730816
1329,23.996611157254269
1369,23.99993134783946
1409,23.764050180669938
1449,22.255115961604575
1489,23.618113530765077
1529,24.05329507121702
1569,23.289638016491737
1609,22.419367833250239
1649,22.570472704018227
1689,21.73713642500135
1729,24.090086680037588
2,1, 7,21, 0,16, 0.00,10.00,SummerDesignDay
8,17.759562446305357
10,421957099.26722636
735,74651864.85550237
2,1, 7,21, 0,16,10.00,20.00,SummerDesignDay
8,17.71907809634183
10,422820962.60503455
735,74651864.85550237
2,1, 7,21, 0,16,20.00,30.00,SummerDesignDay
8,17.67853788661001
10,417287360.51377776
735,74651864.85550237
2,1, 7,21, 0,16,30.00,40.00,SummerDesignDay
8,17.63791796367351
10,414620754.7122748
735,53492011.21377344
2,1, 7,21, 0,16,40.00,50.00,SummerDesignDay
8,17.59724609886134
10,411668003.5988424
735,74651864.85550237
2,1, 7,21, 0,16,50.00,60.00,SummerDesignDay
8,17.55650676726033
10,408441279.9187513
735,74651864.85550237
2,1, 7,21, 0,16, 0.00,60.00,SummerDesignDay
969,23.998985746189687
1009,23.998876284736029
1049,24.56720845021403
1089,24.294996310974687
1129,23.998563919115019
1169,23.99866634129532
1209,23.998665919033944
1249,23.999998040536317
1289,23.99673529136379
1329,23.99669717652829
1369,23.99988425682322
1409,24.496023377654294
1449,22.53988217812586
1489,23.74848368195158
1529,24.02401360716738
1569,23.4993997088946
1609,22.688757929772028
1649,23.290589949093158
1689,21.957703916660397
1729,24.07690016918541
2,1, 7,21, 0,17, 0.00,10.00,SummerDesignDay
8,17.50209486331892
10,399613558.3136758
735,47945551.17041667
2,1, 7,21, 0,17,10.00,20.00,SummerDesignDay
8,17.447570789624618
10,394749150.57673099
735,49311498.87772275
2,1, 7,21, 0,17,20.00,30.00,SummerDesignDay
8,17.392929544208135
10,390735781.0155708
735,68328627.51712239
2,1, 7,21, 0,17,30.00,40.00,SummerDesignDay
8,17.33818013976614
10,387012642.3679841
735,51291004.62316315
2,1, 7,21, 0,17,40.00,50.00,SummerDesignDay
8,17.283317298559309
10,383266471.39375057
735,47174829.8322137
2,1, 7,21, 0,17,50.00,60.00,SummerDesignDay
8,17.22833552437677
10,379504355.02361026
735,47118328.785642128
2,1, 7,21, 0,17, 0.00,60.00,SummerDesignDay
969,23.998957647864044
1009,23.99900027651867
1049,24.457438724276316
1089,24.240593150252449
1129,23.99865446792718
1169,23.99869332821706
1209,23.99869142249142
1249,24.000023372166738
1289,23.996466952546709
1329,23.99771403602324
1369,23.999847214213138
1409,25.06934708974948
1449,22.951274889916225
1489,24.018455253663264
1529,24.031993005232775
1569,23.828753543330376
1609,23.069115208974507
1649,24.051723893673839
1689,22.30178931120165
1729,24.06566747313705
2,1, 7,21, 0,18, 0.00,10.00,SummerDesignDay
8,17.159453019160176
10,349616714.1925251
735,34315824.98167716
2,1, 7,21, 0,18,10.00,20.00,SummerDesignDay
8,17.090391773337136
10,343990684.6133202
735,35500329.66756788
2,1, 7,21, 0,18,20.00,30.00,SummerDesignDay
8,17.021151077964786
10,339363621.6860523
735,36452278.15440511
2,1, 7,21, 0,18,30.00,40.00,SummerDesignDay
8,16.951729380464653
10,334627111.8754761
735,36459209.48827812
2,1, 7,21, 0,18,40.00,50.00,SummerDesignDay
8,16.882126503829249
10,330184931.12662366
735,36466417.9048699
2,1, 7,21, 0,18,50.00,60.00,SummerDesignDay
8,16.812341807494034
10,325838709.5740187
735,36473645.91170708
2,1, 7,21, 0,18, 0.00,60.00,SummerDesignDay
969,23.99906955234157
1009,23.99927758652224
1049,24.321716290813915
1089,24.172503914411619
1129,23.99895540839169
1169,23.998941510277644
1209,23.998936179571627
1249,24.000045057735148
1289,23.996765729947979
1329,23.998859963550929
1369,23.999854916892958
1409,25.455398326005775
1449,23.445024631677986
1489,24.43866293476069
1529,24.084971807189424
1569,24.241662745337476
1609,23.520293222683497
1649,24.799169157408817
1689,22.812721078513929
1729,24.058049265679015
2,1, 7,21, 0,19, 0.00,10.00,SummerDesignDay
8,16.707321072823203
10,241614178.20028544
735,31095944.659903256
2,1, 7,21, 0,19,10.00,20.00,SummerDesignDay
8,16.601881826644556
10,234337785.34829808
735,30624536.232900889
2,1, 7,21, 0,19,20.00,30.00,SummerDesignDay
8,16.496030555252849
10,228655167.32435573
735,27642959.14974087
2,1, 7,21, 0,19,30.00,40.00,SummerDesignDay
8,16.389760181474104
10,223145274.08578886
735,20098783.941379876
2,1, 7,21, 0,19,40.00,50.00,SummerDesignDay
8,16.283067654262039
10,217793605.3915083
735,19884964.90267021
2,1, 7,21, 0,19,50.00,60.00,SummerDesignDay
8,16.17595057957811
10,212552495.48274786
735,24175132.97582942
2,1, 7,21, 0,19, 0.00,60.00,SummerDesignDay
969,23.999461966823238
1009,23.999692972728089
1049,24.135843792299814
1089,24.07850918774091
1129,23.9994826462345
1169,23.99948980835509
1209,23.999493072117109
1249,23.999994117006936
1289,23.997700492343474
1329,23.999373369531868
1369,23.999938147044629
1409,25.65398132180817
1449,23.9415132002087
1489,24.882954419305958
1529,24.194287760000735
1569,24.65982035347851
1609,23.979316343895566
1649,25.42232407542723
1689,23.34812124932068
1729,24.11776812226742
2,1, 7,21, 0,20, 0.00,10.00,SummerDesignDay
8,16.097123145563505
10,160298075.0448304
735,27109576.343813339
2,1, 7,21, 0,20,10.00,20.00,SummerDesignDay
8,16.018070242471564
10,155414113.04571934
735,26872575.71581703
2,1, 7,21, 0,20,20.00,30.00,SummerDesignDay
8,15.938779752340516
10,151375665.17321096
735,20013674.070485467
2,1, 7,21, 0,20,30.00,40.00,SummerDesignDay
8,15.85926152575189
10,147355038.18252654
735,6939386.116958605
2,1, 7,21, 0,20,40.00,50.00,SummerDesignDay
8,15.779503718563929
10,143319331.61625806
735,26775101.363582449
2,1, 7,21, 0,20,50.00,60.00,SummerDesignDay
8,15.699515709672767
10,139211982.05069045
735,26873178.11688745
2,1, 7,21, 0,20, 0.00,60.00,SummerDesignDay
969,23.999779406364018
1009,23.999900577676539
1049,23.953309576814275
1089,23.985211353968066
1129,23.99973849927606
1169,23.999555350239548
1209,23.99578488015489
1249,24.000051652244655
1289,23.998814306379598
1329,23.999065784363855
1369,23.99998976955804
1409,25.516221989193054
1449,24.325854488393348
1489,25.205098889252694
1529,24.295819090393448
1569,24.965978701905074
1609,24.39244102087119
1649,25.719652577222463
1689,23.783643004595694
1729,24.299439622072489
2,1, 7,21, 0,21, 0.00,10.00,SummerDesignDay
8,15.63389147320404
10,133297463.0915934
735,19523685.888823399
2,1, 7,21, 0,21,10.00,20.00,SummerDesignDay
8,15.56810827419793
10,130130094.01576148
735,7425459.817614993
2,1, 7,21, 0,21,20.00,30.00,SummerDesignDay
8,15.502170882753524
10,127407406.91131372
735,26776261.814339959
2,1, 7,21, 0,21,30.00,40.00,SummerDesignDay
8,15.436068032613852
10,126442913.08679365
735,26875739.438067408
2,1, 7,21, 0,21,40.00,50.00,SummerDesignDay
8,15.369804371206009
10,125569313.84933914
735,19032777.439177969
2,1, 7,21, 0,21,50.00,60.00,SummerDesignDay
8,15.303384603594449
10,124501377.01697073
735,7912301.351229534
2,1, 7,21, 0,21, 0.00,60.00,SummerDesignDay
969,23.999893310734199
1009,23.999953844439177
1049,23.812319223110369
1089,23.913092354230128
1129,23.99976678670862
1169,23.999641703369986
1209,23.977999596323966
1249,23.798306355865436
1289,23.99921297842074
1329,23.998981729499279
1369,23.93257866715788
1409,24.93363253555457
1449,24.553395671923995
1489,25.353286977509936
1529,24.266481981834834
1569,25.11149665363534
1609,24.621547745418085
1649,25.63720217291753
1689,24.071320270911234
1729,24.274718495483687
2,1, 7,21, 0,22, 0.00,10.00,SummerDesignDay
8,15.236797685071274
10,70262128.1017931
735,23998391.67457163
2,1, 7,21, 0,22,10.00,20.00,SummerDesignDay
8,15.170047891787942
10,70120051.93904932
735,7326809.5801604739
2,1, 7,21, 0,22,20.00,30.00,SummerDesignDay
8,15.103134826860483
10,69611594.17471072
735,16458959.404170746
2,1, 7,21, 0,22,30.00,40.00,SummerDesignDay
8,15.036063385178485
10,69343981.01588282