Program Version,EnergyPlus, Version 8.9.0-eba93e8e1b, YMD=2019.03.26 18:14
1,5,Environment Title[],Latitude[deg],Longitude[deg],Time Zone[],Elevation[m]
2,8,Day of Simulation[],Month[],Day of Month[],DST Indicator[1=yes 0=no],Hour[],StartMinute[],EndMinute[],DayType
3,5,Cumulative Day of Simulation[],Month[],Day of Month[],DST Indicator[1=yes 0=no],DayType  ! When Daily Report Variables Requested
4,2,Cumulative Days of Simulation[],Month[]  ! When Monthly Report Variables Requested
5,1,Cumulative Days of Simulation[] ! When Run Period Report Variables Requested
6,1,Calendar Year of Simulation[] ! When Annual Report Variables Requested
7,9,Environment,Site Outdoor Air Drybulb Temperature [C] !Monthly [Value,Min,Day,Hour,Minute,Max,Day,Hour,Minute]
8,1,Environment,Site Outdoor Air Wetbulb Temperature [C] !TimeStep
1112,1,SP-ATRIUM (HEIGHT < 6M)-SCH-A-SPACE FUNCTION SYS-6 FLR-1 SCH-A HPLCMT-NORTH ZN,Zone Air Temperature [C] !Hourly
1113,7,SP-ATRIUM (HEIGHT < 6M)-SCH-A-SPACE FUNCTION SYS-6 FLR-1 SCH-A HPLCMT-NORTH ZN,Zone Air Relative Humidity [%] !Daily [Value,Min,Hour,Minute,Max,Hour,Minute]
1152,1,SP-ATRIUM (HEIGHT < 6M)-SCH-B-SPACE FUNCTION SYS-6 FLR-1 SCH-B HPLCMT-SOUTH ZN,Zone Air Temperature [C] !Hourly
1153,7,SP-ATRIUM (HEIGHT < 6M)-SCH-B-SPACE FUNCTION SYS-6 FLR-1 SCH-B HPLCMT-SOUTH ZN,Zone Air Relative Humidity [%] !Daily [Value,Min,Hour,Minute,Max,Hour,Minute]
1192,1,SP-ATRIUM (HEIGHT < 6M)-SCH-C-SPACE FUNCTION SYS-6 FLR-1 SCH-C HPLCMT-CORE ZN,Zone Air Temperature [C] !Hourly
1193,7,SP-ATRIUM (HEIGHT < 6M)-SCH-C-SPACE FUNCTION SYS-6 FLR-1 SCH-C HPLCMT-CORE ZN,Zone Air Relative Humidity [%] !Daily [Value,Min,Hour,Minute,Max,Hour,Minute]
1232,1,SP-ATRIUM (HEIGHT < 6M)-SCH-D-SPACE FUNCTION SYS-6 FLR-2 SCH-D HPLCMT-WEST ZN,Zone Air Temperature [C] !Hourly
1233,7,SP-ATRIUM (HEIGHT < 6M)-SCH-D-SPACE FUNCTION SYS-6 FLR-2 SCH-D HPLCMT-WEST ZN,Zone Air Relative Humidity [%] !Daily [Value,Min,Hour,Minute,Max,Hour,Minute]
1272,1,SP-ATRIUM (HEIGHT < 6M)-SCH-E-SPACE FUNCTION SYS-6 FLR-2 SCH-E HPLCMT-NORTH ZN,Zone Air Temperature [C] !Hourly
1273,7,SP-ATRIUM (HEIGHT < 6M)-SCH-E-SPACE FUNCTION SYS-6 FLR-2 SCH-E HPLCMT-NORTH ZN,Zone Air Relative Humidity [%] !Daily [Value,Min,Hour,Minute,Max,Hour,Minute]
1312,1,SP-ATRIUM (HEIGHT < 6M)-SCH-F-SPACE FUNCTION SYS-6 FLR-1 SCH-F HPLCMT-WEST ZN,Zone Air Temperature [C] !Hourly
1313,7,SP-ATRIUM (HEIGHT < 6M)-SCH-F-SPACE FUNCTION SYS-6 FLR-1 SCH-F HPLCMT-WEST ZN,Zone Air Relative Humidity [%] !Daily [Value,Min,Hour,Minute,Max,Hour,Minute]
1352,1,SP-ATRIUM (HEIGHT < 6M)-SCH-G-SPACE FUNCTION SYS-6 FLR-2 SCH-G HPLCMT-SOUTH ZN,Zone Air Temperature [C] !Hourly
1353,7,SP-ATRIUM (HEIGHT < 6M)-SCH-G-SPACE FUNCTION SYS-6 FLR-2 SCH-G HPLCMT-SOUTH ZN,Zone Air Relative Humidity [%] !Daily [Value,Min,Hour,Minute,Max,Hour,Minute]
1392,1,SP-WHOLEBUILDING-OFFICE SYS-6 FLR-4 SCH-A HPLCMT-EAST ZN,Zone Air Temperature [C] !Hourly
1393,7,SP-WHOLEBUILDING-OFFICE SYS-6 FLR-4 SCH-A HPLCMT-EAST ZN,Zone Air Relative Humidity [%] !Daily [Value,Min,Hour,Minute,Max,Hour,Minute]
1432,1,SP-WHOLEBUILDING-PENITENTIARY SYS-3 FLR-4 SCH-H HPLCMT-NORTH ZN,Zone Air Temperature [C] !Hourly
1433,7,SP-WHOLEBUILDING-PENITENTIARY SYS-3 FLR-4 SCH-H HPLCMT-NORTH ZN,Zone Air Relative Humidity [%] !Daily [Value,Min,Hour,Minute,Max,Hour,Minute]
1472,1,SP-WHOLEBUILDING-PERFORMING ARTS THEATRE SYS-3 FLR-4 SCH-C HPLCMT-SOUTH ZN,Zone Air Temperature [C] !Hourly
1473,7,SP-WHOLEBUILDING-PERFORMING ARTS THEATRE SYS-3 FLR-4 SCH-C HPLCMT-SOUTH ZN,Zone Air Relative Humidity [%] !Daily [Value,Min,Hour,Minute,Max,Hour,Minute]
1512,1,SP-WHOLEBUILDING-POLICE STATION SYS-3 FLR-4 SCH-H HPLCMT-WEST ZN,Zone Air Temperature [C] !Hourly
1513,7,SP-WHOLEBUILDING-POLICE STATION SYS-3 FLR-4 SCH-H HPLCMT-WEST ZN,Zone Air Relative Humidity [%] !Daily [Value,Min,Hour,Minute,Max,Hour,Minute]
1552,1,SP-WHOLEBUILDING-POST OFFICE SYS-6 FLR-3 SCH-A HPLCMT-CORE ZN,Zone Air Temperature [C] !Hourly
1553,7,SP-WHOLEBUILDING-POST OFFICE SYS-6 FLR-3 SCH-A HPLCMT-CORE ZN,Zone Air Relative Humidity [%] !Daily [Value,Min,Hour,Minute,Max,Hour,Minute]
1592,1,SP-WHOLEBUILDING-RETAIL AREA SYS-6 FLR-4 SCH-C HPLCMT-CORE ZN,Zone Air Temperature [C] !Hourly
1593,7,SP-WHOLEBUILDING-RETAIL AREA SYS-6 FLR-4 SCH-C HPLCMT-CORE ZN,Zone Air Relative Humidity [%] !Daily [Value,Min,Hour,Minute,Max,Hour,Minute]
1632,1,SP-WHOLEBUILDING-SCHOOL/UNIVERSITY SYS-3 FLR-3 SCH-D HPLCMT-SOUTH ZN,Zone Air Temperature [C] !Hourly
1633,7,SP-WHOLEBUILDING-SCHOOL/UNIVERSITY SYS-3 FLR-3 SCH-D HPLCMT-SOUTH ZN,Zone Air Relative Humidity [%] !Daily [Value,Min,Hour,Minute,Max,Hour,Minute]
1672,1,SP-WHOLEBUILDING-SPORTS ARENA SYS-6 FLR-3 SCH-B HPLCMT-EAST ZN,Zone Air Temperature [C] !Hourly
1673,7,SP-WHOLEBUILDING-SPORTS ARENA SYS-6 FLR-3 SCH-B HPLCMT-EAST ZN,Zone Air Relative Humidity [%] !Daily [Value,Min,Hour,Minute,Max,Hour,Minute]
1712,1,SP-WHOLEBUILDING-STORAGE GARAGE SYS-4 FLR-3 SCH-K HPLCMT-NORTH ZN,Zone Air Temperature [C] !Hourly
1713,7,SP-WHOLEBUILDING-STORAGE GARAGE SYS-4 FLR-3 SCH-K HPLCMT-NORTH ZN,Zone Air Relative Humidity [%] !Daily [Value,Min,Hour,Minute,Max,Hour,Minute]
1752,1,SP-WHOLEBUILDING-TOWN HALL SYS-3 FLR-3 SCH-D HPLCMT-WEST ZN,Zone Air Temperature [C] !Hourly
1753,7,SP-WHOLEBUILDING-TOWN HALL SYS-3 FLR-3 SCH-D HPLCMT-WEST ZN,Zone Air Relative Humidity [%] !Daily [Value,Min,Hour,Minute,Max,Hour,Minute]
1792,1,SP-WHOLEBUILDING-TRANSPORTATION FACILITY SYS-6 FLR-2 SCH-H HPLCMT-EAST ZN,Zone Air Temperature [C] !Hourly
1793,7,SP-WHOLEBUILDING-TRANSPORTATION FACILITY SYS-6 FLR-2 SCH-H HPLCMT-EAST ZN,Zone Air Relative Humidity [%] !Daily [Value,Min,Hour,Minute,Max,Hour,Minute]
1832,1,SP-WHOLEBUILDING-WAREHOUSE SYS-4 FLR-1 SCH-A HPLCMT-EAST ZN,Zone Air Temperature [C] !Hourly
1833,7,SP-WHOLEBUILDING-WAREHOUSE SYS-4 FLR-1 SCH-A HPLCMT-EAST ZN,Zone Air Relative Humidity [%] !Daily [Value,Min,Hour,Minute,Max,Hour,Minute]
1872,1,SP-WHOLEBUILDING-WORKSHOP SYS-3 FLR-2 SCH-A HPLCMT-CORE ZN,Zone Air Temperature [C] !Hourly
1873,7,SP-WHOLEBUILDING-WORKSHOP SYS-3 FLR-2 SCH-A HPLCMT-CORE ZN,Zone Air Relative Humidity [%] !Daily [Value,Min,Hour,Minute,Max,Hour,Minute]
10,1,Electricity:Facility [J] !TimeStep
878,1,Gas:Facility [J] !TimeStep
End of Data Dictionary
1,FORT MCMURRAY AP ANN CLG .4% CONDNS DB=>MWB,  56.65,-111.22,  -7.00, 369.10
2,1, 7,21, 0, 1, 0.00,10.00,SummerDesignDay
8,14.218136923962174
10,189528984.64875258
878,34323462.001729708
2,1, 7,21, 0, 1,10.00,20.00,SummerDesignDay
8,14.171982153293495
10,189190029.92166583
878,34385002.72184617
2,1, 7,21, 0, 1,20.00,30.00,SummerDesignDay
8,14.125744780286427
10,188853420.3079725
878,33284459.385307164
2,1, 7,21, 0, 1,30.00,40.00,SummerDesignDay
8,14.079436086331978
10,188427765.66265304
878,44313007.490033049
2,1, 7,21, 0, 1,40.00,50.00,SummerDesignDay
8,14.033050387896898
10,188001498.7462177
878,46900826.418747279
2,1, 7,21, 0, 1,50.00,60.00,SummerDesignDay
8,13.986581233564835
10,187577818.98157225
878,46924900.859636608
2,1, 7,21, 0, 1, 0.00,60.00,SummerDesignDay
1112,21.550843112373874
1152,23.192796298479157
1192,21.998835286750987
1232,21.96802898162971
1272,21.666620336168724
1312,23.629817770517695
1352,23.632143923912478
1392,18.32196525225045
1432,23.20938696705062
1472,21.2789312306958
1512,23.370778823058179
1552,21.57224154932095
1592,18.454939420162157
1632,23.102320578008955
1672,22.55665238109658
1712,23.858827762649168
1752,23.497881166382958
1792,23.080304717654756
1832,24.291303884607826
1872,24.069329102912677
2,1, 7,21, 0, 2, 0.00,10.00,SummerDesignDay
8,13.95555882260429
10,179897231.80085064
878,46184857.3215771
2,1, 7,21, 0, 2,10.00,20.00,SummerDesignDay
8,13.924507755336454
10,179616282.50926254
878,46132129.78673059
2,1, 7,21, 0, 2,20.00,30.00,SummerDesignDay
8,13.893416042989206
10,179345549.8974295
878,38840522.5957947
2,1, 7,21, 0, 2,30.00,40.00,SummerDesignDay
8,13.862289589689029
10,179062657.89268489
878,30898692.553290827
2,1, 7,21, 0, 2,40.00,50.00,SummerDesignDay
8,13.831134407608739
10,178785558.9118744
878,30659825.632908483
2,1, 7,21, 0, 2,50.00,60.00,SummerDesignDay
8,13.799938415548118
10,178509443.15145687
878,41406260.68435719
2,1, 7,21, 0, 2, 0.00,60.00,SummerDesignDay
1112,21.488173423320935
1152,22.7720468523174
1192,21.94251606209072
1232,21.855398453290719
1272,21.58609214373403
1312,23.537796770504298
1352,23.518980023907404
1392,18.130956369112835
1432,22.74154610337044
1472,20.729806935836768
1512,22.86001848474244
1552,21.389234653253966
1592,18.254205484056894
1632,22.6868045004499
1672,22.05522710956464
1712,23.464815888437035
1752,23.09476947981761
1792,23.017431702432373
1832,24.150361001435937
1872,24.00419598564429
2,1, 7,21, 0, 3, 0.00,10.00,SummerDesignDay
8,13.776521671948676
10,171819762.63015167
878,42910868.131835188
2,1, 7,21, 0, 3,10.00,20.00,SummerDesignDay
8,13.753085235778466
10,171612121.70642234
878,54757841.780316289
2,1, 7,21, 0, 3,20.00,30.00,SummerDesignDay
8,13.729636002354969
10,171405976.13221339
878,42015189.94748884
2,1, 7,21, 0, 3,30.00,40.00,SummerDesignDay
8,13.706147375533054
10,171200036.82360623
878,14287383.93515706
2,1, 7,21, 0, 3,40.00,50.00,SummerDesignDay
8,13.682651961920304
10,170994096.35641418
878,30160969.775738755
2,1, 7,21, 0, 3,50.00,60.00,SummerDesignDay
8,13.659136670643687
10,170788963.66894246
878,42591386.27587327
2,1, 7,21, 0, 3, 0.00,60.00,SummerDesignDay
1112,21.436313670156875
1152,22.3959547975164
1192,21.891592535998809
1232,21.75775594566713
1272,21.514607125269156
1312,23.493697256890987
1352,23.442486416388836
1392,18.00660722509439
1432,22.409270778749187
1472,20.337865746000089
1512,22.490171534667785
1552,21.227306313988639
1592,18.09089066465837
1632,22.371944883862527
1672,21.41109167666976
1712,22.458749667882246
1752,22.788910196884769
1792,22.956211352819794
1832,24.051928715985658
1872,23.947222500749459
2,1, 7,21, 0, 4, 0.00,10.00,SummerDesignDay
8,13.63560137410855
10,170305604.33918879
878,42660265.66073884
2,1, 7,21, 0, 4,10.00,20.00,SummerDesignDay
8,13.612040802606578
10,170101832.83259616
878,40806100.87775057
2,1, 7,21, 0, 4,20.00,30.00,SummerDesignDay
8,13.58846620506876
10,169898487.17792405
878,15824117.111484249
2,1, 7,21, 0, 4,30.00,40.00,SummerDesignDay
8,13.56487178447336
10,169695850.76915989
878,31642700.75525353
2,1, 7,21, 0, 4,40.00,50.00,SummerDesignDay
8,13.541257354069103
10,169493847.39356146
878,42591647.3598132
2,1, 7,21, 0, 4,50.00,60.00,SummerDesignDay
8,13.517617463812285
10,169291855.4670905
878,42665301.60327621
2,1, 7,21, 0, 4, 0.00,60.00,SummerDesignDay
1112,21.373457693105875
1152,22.15547242409167
1192,21.828428287689648
1232,21.64034103632076
1272,21.420897592800487
1312,23.42479290275408
1352,23.355132041373837
1392,18.000559236059045
1432,22.06980854468618
1472,19.953508587480898
1512,22.12489754773041
1552,21.034248429755256
1592,18.001102890636547
1632,22.035753780161359
1672,20.87669221042422
1712,21.5429106065445
1752,22.459633753023394
1792,22.87267166884665
1832,23.941457768642257
1872,23.87577779027998
2,1, 7,21, 0, 5, 0.00,10.00,SummerDesignDay
8,13.50185415824011
10,169151505.1826264
878,39159959.422997619
2,1, 7,21, 0, 5,10.00,20.00,SummerDesignDay
8,13.486076034032447
10,169011594.11708758
878,15760889.042107784
2,1, 7,21, 0, 5,20.00,30.00,SummerDesignDay
8,13.470289340350983
10,168871397.4845337
878,33344040.229953238
2,1, 7,21, 0, 5,30.00,40.00,SummerDesignDay
8,13.454493322631063
10,168733318.00058598
878,42595264.88518981
2,1, 7,21, 0, 5,40.00,50.00,SummerDesignDay
8,13.438688835118548
10,168597947.09683899
878,42670360.372179228
2,1, 7,21, 0, 5,50.00,60.00,SummerDesignDay
8,13.422888173889437
10,168462416.73182956
878,37513073.15052916
2,1, 7,21, 0, 5, 0.00,60.00,SummerDesignDay
1112,21.31537444678523
1152,22.066010643453848
1192,21.77101858389231
1232,21.537773132475967
1272,21.38980189168207
1312,23.370520671025134
1352,23.27582673678206
1392,18.046190356639597
1432,21.928723653252179
1472,19.682279366196416
1512,21.869607273137434
1552,20.86611182503877
1592,18.000433041842368
1632,21.75494225310274
1672,20.760256632354375
1712,21.413141830461574
1752,22.182702377205
1792,22.89232442545769
1832,23.84378081293491
1872,23.807966805423104
2,1, 7,21, 0, 6, 0.00,10.00,SummerDesignDay
8,13.438688835118548
10,168567461.36526904
878,15695870.134349853
2,1, 7,21, 0, 6,10.00,20.00,SummerDesignDay
8,13.454493322631063
10,168700999.76472477
878,35043657.407953049
2,1, 7,21, 0, 6,20.00,30.00,SummerDesignDay
8,13.470289340350983
10,168834961.48410888
878,42599100.924276608
2,1, 7,21, 0, 6,30.00,40.00,SummerDesignDay
8,13.486076034032447
10,168969095.60089276
878,42675423.66023752
2,1, 7,21, 0, 6,40.00,50.00,SummerDesignDay
8,13.50185415824011
10,169102885.4021102
878,35865620.43392295
2,1, 7,21, 0, 6,50.00,60.00,SummerDesignDay
8,13.517617463812285
10,169238445.24570028
878,15629091.904919917
2,1, 7,21, 0, 6, 0.00,60.00,SummerDesignDay
1112,21.264816662014267
1152,21.99494485564019
1192,21.71595420630413
1232,21.456929023766525
1272,21.42125459527487
1312,23.32882291504706
1352,23.21798661181899
1392,18.695733883882438
1432,22.134573183897897
1472,19.722563448533945
1512,21.917530178142159
1552,20.719087115584416
1592,18.00164579178014
1632,21.61106793222191
1672,21.026416346696136
1712,21.319062982194376
1752,22.037034270811728
1792,23.250469674672038
1832,23.787802324130554
1872,23.746317231052435
2,1, 7,21, 0, 7, 0.00,10.00,SummerDesignDay
8,13.572736920571789
10,170312399.8930749
878,114706601.02983676
2,1, 7,21, 0, 7,10.00,20.00,SummerDesignDay
8,13.627748229152554
10,170675751.48791734
878,42630447.49555363
2,1, 7,21, 0, 7,20.00,30.00,SummerDesignDay
8,13.682651961920304
10,171156709.14532907
878,42683141.50629047
2,1, 7,21, 0, 7,30.00,40.00,SummerDesignDay
8,13.737448093244995
10,171643253.94864656
878,34059593.92861533
2,1, 7,21, 0, 7,40.00,50.00,SummerDesignDay
8,13.792137011831216
10,172352504.6835626
878,15553933.63967695
2,1, 7,21, 0, 7,50.00,60.00,SummerDesignDay
8,13.846719282840333
10,172928903.55140416
878,38602524.43055312
2,1, 7,21, 0, 7, 0.00,60.00,SummerDesignDay
1112,21.224752786813807
1152,21.932713980426045
1192,21.665630174998225
1232,21.42683170231409
1272,21.343020312741826
1312,23.31804404182692
1352,23.227380089367015
1392,20.038240449313066
1432,22.503183852946717
1472,20.21328030520767
1512,22.391331690390574
1552,20.6002195729123
1592,18.15852502745588
1632,21.712166682743143
1672,21.33506258184086
1712,21.25731488885595
1752,22.128469545290046
1792,23.491305378447369
1832,23.823667306654089
1872,23.692476848396287
2,1, 7,21, 0, 8, 0.00,10.00,SummerDesignDay
8,13.978831900527043
10,196120985.2721337
878,254319264.01975588
2,1, 7,21, 0, 8,10.00,20.00,SummerDesignDay
8,14.110321014287419
10,193556570.35243023
878,153846995.51468802
2,1, 7,21, 0, 8,20.00,30.00,SummerDesignDay
8,14.241191509616986
10,195064398.5364622
878,34889534.76619134
2,1, 7,21, 0, 8,30.00,40.00,SummerDesignDay
8,14.371447531304272
10,196287051.29061163
878,18323431.9842805
2,1, 7,21, 0, 8,40.00,50.00,SummerDesignDay
8,14.501093766564925
10,199509827.2943895
878,33466845.0631252
2,1, 7,21, 0, 8,50.00,60.00,SummerDesignDay
8,14.630134792273804
10,203328446.871465
878,43181736.920139428
2,1, 7,21, 0, 8, 0.00,60.00,SummerDesignDay
1112,21.838198140904266
1152,21.91698646151823
1192,21.659001858179768
1232,21.39934491826413
1272,21.288944397176164
1312,23.24400869007334
1352,23.21646167460817
1392,21.957556675865207
1432,23.52904257108942
1472,21.465667735153713
1512,23.51840945280638
1552,21.01490375221736
1592,19.933605203227484
1632,22.20774389770935
1672,22.079933697119519
1712,21.80222747853163
1752,22.602438242519644
1792,23.687610157777685
1832,23.98382755875583
1872,23.605393211816588
2,1, 7,21, 0, 9, 0.00,10.00,SummerDesignDay
8,14.773641492809972
10,287562741.8821501
878,220610765.27251894
2,1, 7,21, 0, 9,10.00,20.00,SummerDesignDay
8,14.91640948124148
10,292310068.84376129
878,127113313.65155193
2,1, 7,21, 0, 9,20.00,30.00,SummerDesignDay
8,15.05843890714102
10,296543094.923645
878,54368128.0354597
2,1, 7,21, 0, 9,30.00,40.00,SummerDesignDay
8,15.199735893563798
10,302920714.5365176
878,53626637.49116114
2,1, 7,21, 0, 9,40.00,50.00,SummerDesignDay
8,15.340306256439395
10,309218534.8203106
878,50826490.56800585
2,1, 7,21, 0, 9,50.00,60.00,SummerDesignDay
8,15.48015101768072
10,316142933.7985652
878,47294105.06988361
2,1, 7,21, 0, 9, 0.00,60.00,SummerDesignDay
1112,22.422571992986446
1152,21.870507404188797
1192,21.909904225769926
1232,22.001714590463036
1272,22.000886605288828
1312,22.988013747325529
1352,23.097746564649908
1392,23.08377339862751
1432,23.998724979501359
1472,23.572474466533
1512,23.999390825928079
1552,21.906292179141177
1592,21.90282555615823
1632,23.42963339128589
1672,22.02861863841525
1712,22.94696693528719
1752,23.66483486301038
1792,23.707270371254255
1832,23.999910338285948
1872,23.977999567491808
2,1, 7,21, 0,10, 0.00,10.00,SummerDesignDay
8,15.60467292907716
10,388686751.29710516
878,56609788.02381204
2,1, 7,21, 0,10,10.00,20.00,SummerDesignDay
8,15.72862731650033
10,393629665.56137856
878,57917223.85324228
2,1, 7,21, 0,10,20.00,30.00,SummerDesignDay
8,15.852017409284228
10,398735309.76581576
878,57554370.87400207
2,1, 7,21, 0,10,30.00,40.00,SummerDesignDay
8,15.974848118364367
10,403926369.2524869
878,57468250.81422906
2,1, 7,21, 0,10,40.00,50.00,SummerDesignDay
8,16.097123145563505
10,408359234.9564104
878,57765476.116589497
2,1, 7,21, 0,10,50.00,60.00,SummerDesignDay
8,16.218846351168599
10,412083047.8562938
878,58212611.41840308
2,1, 7,21, 0,10, 0.00,60.00,SummerDesignDay
1112,22.966748149848443
1152,22.0744470050937
1192,22.224917258211638
1232,22.56992408458866
1272,22.377905552826247
1312,22.753004377208744
1352,22.893298394285279
1392,23.42229257576048
1432,23.99831254303074
1472,23.999659578194544
1512,23.999263450532529
1552,22.289075741645946
1592,22.901495962080074
1632,23.99899280702441
1672,22.379884235400735
1712,24.361831530157237
1752,23.999656089285918
1792,23.6694672547607
1832,23.99990094721842
1872,23.999540422206129
2,1, 7,21, 0,11, 0.00,10.00,SummerDesignDay
8,16.325793027093189
10,421761748.2341908
878,68302629.20815285
2,1, 7,21, 0,11,10.00,20.00,SummerDesignDay
8,16.432322158488288
10,425410073.28052207
878,91700346.06776509
2,1, 7,21, 0,11,20.00,30.00,SummerDesignDay
8,16.538424180249178
10,429772179.43771478
878,87236038.05188938
2,1, 7,21, 0,11,30.00,40.00,SummerDesignDay
8,16.644108396469087
10,432949392.5569167
878,68427450.39860402
2,1, 7,21, 0,11,40.00,50.00,SummerDesignDay
8,16.749376736593655
10,435554123.1018913
878,68400758.24771609
2,1, 7,21, 0,11,50.00,60.00,SummerDesignDay
8,16.854232613237156
10,439342404.8155657
878,68369079.85673312
2,1, 7,21, 0,11, 0.00,60.00,SummerDesignDay
1112,23.235442764238639
1152,22.315716205541994
1192,22.724586799169573
1232,22.90778149644682
1272,22.91561965899912
1312,22.54164247178922
1352,23.092165804236953
1392,23.829357105001284
1432,23.997247890734344
1472,23.99890532902498
1512,23.99877052294711
1552,22.61023083627202
1592,23.890791118183285
1632,23.997477454883165
1672,22.68014194981708
1712,25.690684408915034
1752,23.99928605047951
1792,23.49014396483855
1832,23.999897048379876
1872,23.999239379797193
2,1, 7,21, 0,12, 0.00,10.00,SummerDesignDay
8,16.92390823520069
10,445824392.30100187
878,68805701.72521897
2,1, 7,21, 0,12,10.00,20.00,SummerDesignDay
8,16.99340178950456
10,448276076.5159427
878,83846840.6830945
2,1, 7,21, 0,12,20.00,30.00,SummerDesignDay
8,17.06272006743463
10,450608477.40654817
878,83927656.25636775
2,1, 7,21, 0,12,30.00,40.00,SummerDesignDay
8,17.131853229172639
10,452768695.357535
878,74216771.07802288
2,1, 7,21, 0,12,40.00,50.00,SummerDesignDay
8,17.200807172194087
10,454792667.73333069
878,66459379.74095962
2,1, 7,21, 0,12,50.00,60.00,SummerDesignDay
8,17.269582116758607
10,456698444.20113977
878,66435185.5033016
2,1, 7,21, 0,12, 0.00,60.00,SummerDesignDay
1112,23.315404487501288
1152,22.822977499487988
1192,22.939213992222805
1232,22.877446185290564
1272,23.012340879573164
1312,22.427516187124739
1352,23.334542557435893
1392,23.998986856145039
1432,23.997112954262489
1472,23.998537427737813
1512,23.99869058078356
1552,22.84807818413647
1592,23.99963938071672
1632,23.996822658358867
1672,22.930369930626754
1712,26.68012089460456
1752,23.999130127917913
1792,23.497141271041888
1832,23.99995934063787
1872,23.999120818999886
2,1, 7,21, 0,13, 0.00,10.00,SummerDesignDay
8,17.32447360221357
10,457511694.6042476
878,68936529.14569105
2,1, 7,21, 0,13,10.00,20.00,SummerDesignDay
8,17.379251291230806
10,459162371.7357473
878,76913211.30277759
2,1, 7,21, 0,13,20.00,30.00,SummerDesignDay
8,17.433921312061729
10,459954435.16642549
878,95685907.82657674
2,1, 7,21, 0,13,30.00,40.00,SummerDesignDay
8,17.488473222557489
10,461362322.9662226
878,77068933.91190623
2,1, 7,21, 0,13,40.00,50.00,SummerDesignDay
8,17.542913447755134
10,462663695.70057049
878,69241442.6091933
2,1, 7,21, 0,13,50.00,60.00,SummerDesignDay
8,17.59724609886134
10,463885400.38571539
878,69208350.59453626
2,1, 7,21, 0,13, 0.00,60.00,SummerDesignDay
1112,22.893756598780244
1152,23.50158707465056
1192,23.22935236282612
1232,22.8326481212316
1272,23.086254450019778
1312,22.373601369521386
1352,23.560389323976609
1392,23.999179476619984
1432,23.99684746807632
1472,23.998031370566268
1512,23.998655194058818
1552,22.9673254566722
1592,23.99960401161012
1632,23.996784812871416
1672,23.326777480365128
1712,27.32916211483896
1752,23.999060790828563
1792,23.469239997130364
1832,24.000023749026
1872,23.9991714105491
2,1, 7,21, 0,14, 0.00,10.00,SummerDesignDay
8,17.6311450462694
10,464551940.318086
878,74752966.38589555
2,1, 7,21, 0,14,10.00,20.00,SummerDesignDay
8,17.665000449016245
10,465529777.75163558
878,99591006.36923191
2,1, 7,21, 0,14,20.00,30.00,SummerDesignDay
8,17.698812743128934
10,466113781.5331068
878,76538155.61565902
2,1, 7,21, 0,14,30.00,40.00,SummerDesignDay
8,17.732582050940107
10,466861483.3853789
878,69982789.91994779
2,1, 7,21, 0,14,40.00,50.00,SummerDesignDay
8,17.766307345121004
10,467615527.46874198
878,69946976.37583746
2,1, 7,21, 0,14,50.00,60.00,SummerDesignDay
8,17.79999023167558
10,468401280.49258986
878,83344519.62631689
2,1, 7,21, 0,14, 0.00,60.00,SummerDesignDay
1112,22.702973235503547
1152,23.6889385110776
1192,23.393732797818516
1232,22.891741315966074
1272,23.17186224627926
1312,22.35035710038177
1352,23.67158732879899
1392,23.99927212092737
1432,23.99683736594366
1472,23.997807679446976
1512,23.99861587397251
1552,23.2227939967523
1592,23.999529751431095
1632,23.996641099869618
1672,23.381121405298776
1712,27.870028072306014
1752,23.998985570288313
1792,23.472174837277494
1832,24.000043342039708
1872,23.999206432234275
2,1, 7,21, 0,15, 0.00,10.00,SummerDesignDay
8,17.79999023167558
10,469623748.79640957
878,97766114.67074462
2,1, 7,21, 0,15,10.00,20.00,SummerDesignDay
8,17.79999023167558
10,469977805.70437446
878,70001798.64604776
2,1, 7,21, 0,15,20.00,30.00,SummerDesignDay
8,17.79999023167558
10,470214904.62783297
878,69973067.28995732
2,1, 7,21, 0,15,30.00,40.00,SummerDesignDay
8,17.79999023167558
10,470369150.97165676
878,69936370.01161029
2,1, 7,21, 0,15,40.00,50.00,SummerDesignDay
8,17.79999023167558
10,470994900.12414178
878,91797244.15313563
2,1, 7,21, 0,15,50.00,60.00,SummerDesignDay
8,17.79999023167558
10,470280567.5376396
878,89525936.7559025
2,1, 7,21, 0,15, 0.00,60.00,SummerDesignDay
1112,23.185804653190855
1152,23.411858290027597
1192,23.45809116729214
1232,23.207698213925267
1272,22.882115750366564
1312,22.348684503581315
1352,23.628793789344689
1392,23.99918965428714
1432,23.9968943677334
1472,23.9976568558555
1512,23.99854137047194
1552,23.45520807288609
1592,23.99953253863967
1632,23.99633697850119
1672,23.387627882453246
1712,28.206232519803966
1752,23.99878485556064
1792,23.479412817037756
1832,24.00003323487685
1872,23.999059547131055
2,1, 7,21, 0,16, 0.00,10.00,SummerDesignDay
8,17.759562446305357
10,469517765.6807657
878,68635229.54642606
2,1, 7,21, 0,16,10.00,20.00,SummerDesignDay
8,17.71907809634183
10,469306898.0415745
878,68449470.0835573
2,1, 7,21, 0,16,20.00,30.00,SummerDesignDay
8,17.67853788661001
10,467558521.07144656
878,68417187.53454879
2,1, 7,21, 0,16,30.00,40.00,SummerDesignDay
8,17.63791796367351
10,466943735.4111076
878,81744676.75746399
2,1, 7,21, 0,16,40.00,50.00,SummerDesignDay
8,17.59724609886134
10,465544058.99143376
878,92015917.119189
2,1, 7,21, 0,16,50.00,60.00,SummerDesignDay
8,17.55650676726033
10,464014013.0745652
878,75538966.17142532
2,1, 7,21, 0,16, 0.00,60.00,SummerDesignDay
1112,23.46518024756142
1152,23.00896447634962
1192,23.514228964730909
1232,23.55142893634064
1272,23.253837921558785
1312,22.37360617842144
1352,23.526062910605135
1392,23.99912979053005
1432,23.99695938676877
1472,23.997860299616293
1512,23.998531091163604
1552,23.490667116184257
1592,23.999547301507247
1632,23.996283125315548
1672,23.36583660675288
1712,28.310518272978304
1752,23.998513402783855
1792,23.512347938737745
1832,24.000009918175804
1872,23.998896702269165
2,1, 7,21, 0,17, 0.00,10.00,SummerDesignDay
8,17.50209486331892
10,453582371.7990129
878,63362859.03958857
2,1, 7,21, 0,17,10.00,20.00,SummerDesignDay
8,17.447570789624618
10,449988012.02833166
878,61666340.17887436
2,1, 7,21, 0,17,20.00,30.00,SummerDesignDay
8,17.392929544208135
10,448609311.5070281
878,62518110.65896802
2,1, 7,21, 0,17,30.00,40.00,SummerDesignDay
8,17.33818013976614
10,448003540.2188057
878,61633985.902764189
2,1, 7,21, 0,17,40.00,50.00,SummerDesignDay
8,17.283317298559309
10,446422055.023667
878,62527307.366389129
2,1, 7,21, 0,17,50.00,60.00,SummerDesignDay
8,17.22833552437677
10,445013965.5945524
878,61601667.51060973
2,1, 7,21, 0,17, 0.00,60.00,SummerDesignDay
1112,23.536799976287026
1152,22.887881579688707
1192,23.676880095097216
1232,23.55742259011717
1272,23.371930310619459
1312,22.505082247328759
1352,23.42055467498484
1392,23.81450109149415
1432,23.997316136109594
1472,23.998026599907737
1512,23.99843734529784
1552,23.497662226829097
1592,23.842852193390376
1632,23.997333662115599
1672,23.462835719551554
1712,28.143098112854728
1752,23.998669036364516
1792,23.519826147599308
1832,23.999940272592768
1872,23.998814816784685
2,1, 7,21, 0,18, 0.00,10.00,SummerDesignDay
8,17.159453019160176
10,427099480.5106706
878,57229859.09151104
2,1, 7,21, 0,18,10.00,20.00,SummerDesignDay
8,17.090391773337136
10,424607192.4267821
878,56988729.11314316
2,1, 7,21, 0,18,20.00,30.00,SummerDesignDay
8,17.021151077964786
10,421535263.8232413
878,57001145.27638177
2,1, 7,21, 0,18,30.00,40.00,SummerDesignDay
8,16.951729380464653
10,418138250.1658484
878,57051519.13558822
2,1, 7,21, 0,18,40.00,50.00,SummerDesignDay
8,16.882126503829249
10,415804313.5623575
878,57092444.92388106
2,1, 7,21, 0,18,50.00,60.00,SummerDesignDay
8,16.812341807494034
10,413473226.223941
878,57117672.513493869
2,1, 7,21, 0,18, 0.00,60.00,SummerDesignDay
1112,23.351581164691728
1152,22.991875154803265
1192,23.674337397859444
1232,23.540498988185364
1272,23.331414771413209
1312,22.770050546607476
1352,23.391731810981466
1392,23.078163397525019
1432,23.997366470865655
1472,23.9984436533677
1512,23.998487628117389
1552,23.511223462573044
1592,23.21891482242987
1632,23.998677872648135
1672,23.474511251626756
1712,27.876057303844893
1752,23.99909141651743
1792,23.44997939667424
1832,23.999908205626399
1872,23.998956631707235
2,1, 7,21, 0,19, 0.00,10.00,SummerDesignDay
8,16.707321072823203
10,375992894.5934052
878,60702934.30419079
2,1, 7,21, 0,19,10.00,20.00,SummerDesignDay
8,16.601881826644556
10,372890843.7514923
878,56605862.249358858
2,1, 7,21, 0,19,20.00,30.00,SummerDesignDay
8,16.496030555252849
10,369294820.03717079
878,56000602.4085026
2,1, 7,21, 0,19,30.00,40.00,SummerDesignDay
8,16.389760181474104
10,364738024.2036567
878,56049465.61380609
2,1, 7,21, 0,19,40.00,50.00,SummerDesignDay
8,16.283067654262039
10,361883603.2838199
878,53456447.73096033
2,1, 7,21, 0,19,50.00,60.00,SummerDesignDay
8,16.17595057957811
10,358442621.61742308
878,51669654.66223951
2,1, 7,21, 0,19, 0.00,60.00,SummerDesignDay
1112,22.68189911816458
1152,23.366441449974599
1192,23.45280842085
1232,23.504176440780016
1272,22.687879305458379
1312,22.92031790453318
1352,23.655984034617235
1392,22.08023766107085
1432,23.998151131219144
1472,23.99917816036468
1512,23.998888749852897
1552,23.167366852855925
1592,22.519580780882266
1632,23.999273480186944
1672,23.430704710378526
1712,27.024084828179487
1752,23.99943053851288
1792,23.46454876366509
1832,23.999941484127647
1872,23.999557487017609
2,1, 7,21, 0,20, 0.00,10.00,SummerDesignDay
8,16.097123145563505
10,331184113.86423817
878,49844587.83033725
2,1, 7,21, 0,20,10.00,20.00,SummerDesignDay
8,16.018070242471564
10,328417006.89668115
878,49875223.76355206
2,1, 7,21, 0,20,20.00,30.00,SummerDesignDay
8,15.938779752340516
10,325826293.8700771
878,50005740.34914336
2,1, 7,21, 0,20,30.00,40.00,SummerDesignDay
8,15.85926152575189
10,322511578.97417369
878,50054860.43887334
2,1, 7,21, 0,20,40.00,50.00,SummerDesignDay
8,15.779503718563929
10,319562528.4183052
878,50076535.13171271
2,1, 7,21, 0,20,50.00,60.00,SummerDesignDay
8,15.699515709672767
10,316571037.8945783
878,50103145.4166595
2,1, 7,21, 0,20, 0.00,60.00,SummerDesignDay
1112,22.17172666240125
1152,23.717925888725316
1192,23.096829177332297
1232,23.548653866138634
1272,22.2910611952065
1312,23.12773490371894
1352,23.643902284626305
1392,22.00026605871264
1432,23.998054341740568
1472,23.999505943620894
1512,23.998972153113056
1552,22.86360384886996
1592,22.005140786069864
1632,23.99892439618061
1672,23.412678349060017
1712,26.61003281317414
1752,23.99932490320884
1792,23.467362980524969
1832,23.999957836214777
1872,23.99977855494971
2,1, 7,21, 0,21, 0.00,10.00,SummerDesignDay
8,15.63389147320404
10,308268345.2990321
878,54066107.353052999
2,1, 7,21, 0,21,10.00,20.00,SummerDesignDay
8,15.56810827419793
10,305314526.45891097
878,278327088.4314281
2,1, 7,21, 0,21,20.00,30.00,SummerDesignDay
8,15.502170882753524
10,302134934.58186098
878,60016716.65940822
2,1, 7,21, 0,21,30.00,40.00,SummerDesignDay
8,15.436068032613852
10,299114479.0690368