Program Version,EnergyPlus, Version 8.9.0-eba93e8e1b, YMD=2019.04.04 17:58
1,5,Environment Title[],Latitude[deg],Longitude[deg],Time Zone[],Elevation[m]
2,8,Day of Simulation[],Month[],Day of Month[],DST Indicator[1=yes 0=no],Hour[],StartMinute[],EndMinute[],DayType
3,5,Cumulative Day of Simulation[],Month[],Day of Month[],DST Indicator[1=yes 0=no],DayType  ! When Daily Report Variables Requested
4,2,Cumulative Days of Simulation[],Month[]  ! When Monthly Report Variables Requested
5,1,Cumulative Days of Simulation[] ! When Run Period Report Variables Requested
6,1,Calendar Year of Simulation[] ! When Annual Report Variables Requested
7,9,Environment,Site Outdoor Air Drybulb Temperature [C] !Monthly [Value,Min,Day,Hour,Minute,Max,Day,Hour,Minute]
8,1,Environment,Site Outdoor Air Wetbulb Temperature [C] !TimeStep
344,1,SALES AREA-SPACE FUNCTION ZN,Zone Air Temperature [C] !Hourly
345,7,SALES AREA-SPACE FUNCTION ZN,Zone Air Relative Humidity [%] !Daily [Value,Min,Hour,Minute,Max,Hour,Minute]
384,1,SPORTS ARENA - AUDIENCE-SPACE FUNCTION ZN,Zone Air Temperature [C] !Hourly
385,7,SPORTS ARENA - AUDIENCE-SPACE FUNCTION ZN,Zone Air Relative Humidity [%] !Daily [Value,Min,Hour,Minute,Max,Hour,Minute]
424,1,SPORTS ARENA - COURT C1-SPACE FUNCTION ZN,Zone Air Temperature [C] !Hourly
425,7,SPORTS ARENA - COURT C1-SPACE FUNCTION ZN,Zone Air Relative Humidity [%] !Daily [Value,Min,Hour,Minute,Max,Hour,Minute]
464,1,SPORTS ARENA - COURT C2-SPACE FUNCTION ZN,Zone Air Temperature [C] !Hourly
465,7,SPORTS ARENA - COURT C2-SPACE FUNCTION ZN,Zone Air Relative Humidity [%] !Daily [Value,Min,Hour,Minute,Max,Hour,Minute]
504,1,SPORTS ARENA - COURT C3-SPACE FUNCTION ZN,Zone Air Temperature [C] !Hourly
505,7,SPORTS ARENA - COURT C3-SPACE FUNCTION ZN,Zone Air Relative Humidity [%] !Daily [Value,Min,Hour,Minute,Max,Hour,Minute]
10,1,Electricity:Facility [J] !TimeStep
655,1,DistrictCooling:Facility [J] !TimeStep
618,1,DistrictHeating:Facility [J] !TimeStep
End of Data Dictionary
1,FORT MCMURRAY AP ANN CLG .4% CONDNS DB=>MWB,  56.65,-111.22,  -7.00, 369.10
2,1, 7,21, 0, 1, 0.00,10.00,SummerDesignDay
8,14.218136923962174
10,77583104.30059661
618,16810885.61148806
655,45789683.67351856
2,1, 7,21, 0, 1,10.00,20.00,SummerDesignDay
8,14.171982153293495
10,77583104.30059661
618,17900989.041979977
655,44416628.858287397
2,1, 7,21, 0, 1,20.00,30.00,SummerDesignDay
8,14.125744780286427
10,77583104.30059661
618,18924542.036422004
655,43261557.037212509
2,1, 7,21, 0, 1,30.00,40.00,SummerDesignDay
8,14.079436086331978
10,77583104.30059661
618,19949458.43076778
655,42105705.78405151
2,1, 7,21, 0, 1,40.00,50.00,SummerDesignDay
8,14.033050387896898
10,77583104.30059661
618,20968046.869818607
655,40989255.575794208
2,1, 7,21, 0, 1,50.00,60.00,SummerDesignDay
8,13.986581233564835
10,77583104.30059661
618,21982749.062762437
655,39899012.46752536
2,1, 7,21, 0, 1, 0.00,60.00,SummerDesignDay
344,21.457340151465364
384,22.000000221452308
424,24.00000000000007
464,24.00000000000001
504,24.000000000000026
2,1, 7,21, 0, 2, 0.00,10.00,SummerDesignDay
8,13.95555882260429
10,43788385.56319039
618,27199774.77050157
655,0.0
2,1, 7,21, 0, 2,10.00,20.00,SummerDesignDay
8,13.924507755336454
10,43788385.56319039
618,28178603.79091993
655,0.0
2,1, 7,21, 0, 2,20.00,30.00,SummerDesignDay
8,13.893416042989206
10,43788385.56319039
618,28942829.49742652
655,0.0
2,1, 7,21, 0, 2,30.00,40.00,SummerDesignDay
8,13.862289589689029
10,43788385.56319039
618,29714127.38079488
655,0.0
2,1, 7,21, 0, 2,40.00,50.00,SummerDesignDay
8,13.831134407608739
10,43788385.56319039
618,30463250.859002167
655,0.0
2,1, 7,21, 0, 2,50.00,60.00,SummerDesignDay
8,13.799938415548118
10,43788385.56319039
618,31199947.324571238
655,0.0
2,1, 7,21, 0, 2, 0.00,60.00,SummerDesignDay
344,21.03270548852672
384,22.00000000012814
424,24.335633715956793
464,23.657235738227496
504,23.085436574276227
2,1, 7,21, 0, 3, 0.00,10.00,SummerDesignDay
8,13.776521671948676
10,9993666.82578417
618,0.0
655,0.0
2,1, 7,21, 0, 3,10.00,20.00,SummerDesignDay
8,13.753085235778466
10,9993666.82578417
618,0.0
655,0.0
2,1, 7,21, 0, 3,20.00,30.00,SummerDesignDay
8,13.729636002354969
10,9993666.82578417
618,0.0
655,0.0
2,1, 7,21, 0, 3,30.00,40.00,SummerDesignDay
8,13.706147375533054
10,9993666.82578417
618,0.0
655,0.0
2,1, 7,21, 0, 3,40.00,50.00,SummerDesignDay
8,13.682651961920304
10,9993666.82578417
618,0.0
655,0.0
2,1, 7,21, 0, 3,50.00,60.00,SummerDesignDay
8,13.659136670643687
10,9993666.82578417
618,0.0
655,0.0
2,1, 7,21, 0, 3, 0.00,60.00,SummerDesignDay
344,20.571788243042744
384,19.00896649615473
424,22.44643822572427
464,21.803615003467745
504,21.19492879774634
2,1, 7,21, 0, 4, 0.00,10.00,SummerDesignDay
8,13.63560137410855
10,9993666.82578417
618,0.0
655,0.0
2,1, 7,21, 0, 4,10.00,20.00,SummerDesignDay
8,13.612040802606578
10,9993666.82578417
618,1628617.000733134
655,0.0
2,1, 7,21, 0, 4,20.00,30.00,SummerDesignDay
8,13.58846620506876
10,9993666.82578417
618,2292753.1120102645
655,0.0
2,1, 7,21, 0, 4,30.00,40.00,SummerDesignDay
8,13.56487178447336
10,9993666.82578417
618,2937720.5415425507
655,0.0
2,1, 7,21, 0, 4,40.00,50.00,SummerDesignDay
8,13.541257354069103
10,9993666.82578417
618,3684748.4162946746
655,0.0
2,1, 7,21, 0, 4,50.00,60.00,SummerDesignDay
8,13.517617463812285
10,9993666.82578417
618,4326523.092248105
655,0.0
2,1, 7,21, 0, 4, 0.00,60.00,SummerDesignDay
344,19.92788511460813
384,18.00788071208534
424,20.475018305369554
464,20.164323106198066
504,19.78193477890516
2,1, 7,21, 0, 5, 0.00,10.00,SummerDesignDay
8,13.50185415824011
10,9993666.82578417
618,4779798.514298093
655,0.0
2,1, 7,21, 0, 5,10.00,20.00,SummerDesignDay
8,13.486076034032447
10,9993666.82578417
618,5213624.966605306
655,0.0
2,1, 7,21, 0, 5,20.00,30.00,SummerDesignDay
8,13.470289340350983
10,9993666.82578417
618,5633265.0923994979
655,0.0
2,1, 7,21, 0, 5,30.00,40.00,SummerDesignDay
8,13.454493322631063
10,9993666.82578417
618,6040853.042364912
655,0.0
2,1, 7,21, 0, 5,40.00,50.00,SummerDesignDay
8,13.438688835118548
10,9993666.82578417
618,6437424.094492415
655,0.0
2,1, 7,21, 0, 5,50.00,60.00,SummerDesignDay
8,13.422888173889437
10,9993666.82578417
618,6826144.961285299
655,0.0
2,1, 7,21, 0, 5, 0.00,60.00,SummerDesignDay
344,19.42491495178376
384,18.000002426987874
424,19.749152091617018
464,19.497990091446345
504,19.184115966958716
2,1, 7,21, 0, 6, 0.00,10.00,SummerDesignDay
8,13.438688835118548
10,9993666.82578417
618,6549061.125360153
655,0.0
2,1, 7,21, 0, 6,10.00,20.00,SummerDesignDay
8,13.454493322631063
10,9993666.82578417
618,6265045.379020109
655,0.0
2,1, 7,21, 0, 6,20.00,30.00,SummerDesignDay
8,13.470289340350983
10,9993666.82578417
618,5976079.439036436
655,0.0
2,1, 7,21, 0, 6,30.00,40.00,SummerDesignDay
8,13.486076034032447
10,9993666.82578417
618,5681037.049025372
655,0.0
2,1, 7,21, 0, 6,40.00,50.00,SummerDesignDay
8,13.50185415824011
10,9993666.82578417
618,5380393.285229537
655,0.0
2,1, 7,21, 0, 6,50.00,60.00,SummerDesignDay
8,13.517617463812285
10,9993666.82578417
618,5076155.787274149
655,0.0
2,1, 7,21, 0, 6, 0.00,60.00,SummerDesignDay
344,19.16177620889739
384,18.00000000166577
424,19.468687428960917
464,19.219106455851077
504,18.938852150909879
2,1, 7,21, 0, 7, 0.00,10.00,SummerDesignDay
8,13.572736920571789
10,9993666.82578417
618,3943169.191658313
655,0.0
2,1, 7,21, 0, 7,10.00,20.00,SummerDesignDay
8,13.627748229152554
10,9993666.82578417
618,2803239.0816744787
655,0.0
2,1, 7,21, 0, 7,20.00,30.00,SummerDesignDay
8,13.682651961920304
10,9993666.82578417
618,1667319.2625644475
655,0.0
2,1, 7,21, 0, 7,30.00,40.00,SummerDesignDay
8,13.737448093244995
10,9993666.82578417
618,525598.2812069305
655,0.0
2,1, 7,21, 0, 7,40.00,50.00,SummerDesignDay
8,13.792137011831216
10,9993666.82578417
618,0.0
655,0.0
2,1, 7,21, 0, 7,50.00,60.00,SummerDesignDay
8,13.846719282840333
10,9993666.82578417
618,0.0
655,0.0
2,1, 7,21, 0, 7, 0.00,60.00,SummerDesignDay
344,19.214557591228535
384,18.01873286016263
424,19.564121319089769
464,19.309253309566658
504,19.045970629746816
2,1, 7,21, 0, 8, 0.00,10.00,SummerDesignDay
8,13.978831900527043
10,9993666.82578417
618,14284114.075816149
655,0.0
2,1, 7,21, 0, 8,10.00,20.00,SummerDesignDay
8,14.110321014287419
10,9993666.82578417
618,48937.023405945416
655,0.0
2,1, 7,21, 0, 8,20.00,30.00,SummerDesignDay
8,14.241191509616986
10,9993666.82578417
618,5002972.049854075
655,0.0
2,1, 7,21, 0, 8,30.00,40.00,SummerDesignDay
8,14.371447531304272
10,9993666.82578417
618,0.0
655,0.0
2,1, 7,21, 0, 8,40.00,50.00,SummerDesignDay
8,14.501093766564925
10,9993666.82578417
618,0.0
655,0.0
2,1, 7,21, 0, 8,50.00,60.00,SummerDesignDay
8,14.630134792273804
10,9993666.82578417
618,0.0
655,0.0
2,1, 7,21, 0, 8, 0.00,60.00,SummerDesignDay
344,20.118655036551023
384,18.8672693335872
424,20.092705859318863
464,19.835711440319036
504,19.579289520243269
2,1, 7,21, 0, 9, 0.00,10.00,SummerDesignDay
8,14.773641492809972
10,23898551.098677696
618,39480622.307011578
655,0.0
2,1, 7,21, 0, 9,10.00,20.00,SummerDesignDay
8,14.91640948124148
10,23898551.098677696
618,0.0
655,0.0
2,1, 7,21, 0, 9,20.00,30.00,SummerDesignDay
8,15.05843890714102
10,23898551.098677696
618,0.0
655,0.0
2,1, 7,21, 0, 9,30.00,40.00,SummerDesignDay
8,15.199735893563798
10,23898551.098677696
618,0.0
655,0.0
2,1, 7,21, 0, 9,40.00,50.00,SummerDesignDay
8,15.340306256439395
10,23898551.098677696
618,0.0
655,0.0
2,1, 7,21, 0, 9,50.00,60.00,SummerDesignDay
8,15.48015101768072
10,23898551.098677696
618,0.0
655,0.0
2,1, 7,21, 0, 9, 0.00,60.00,SummerDesignDay
344,22.925203008557728
384,20.82619730349506
424,21.22975519081027
464,20.96561870213338
504,20.721097934000239
2,1, 7,21, 0,10, 0.00,10.00,SummerDesignDay
8,15.60467292907716
10,70053166.96754481
618,12517627.544515262
655,8752250.8559964
2,1, 7,21, 0,10,10.00,20.00,SummerDesignDay
8,15.72862731650033
10,70053166.96754481
618,0.0
655,16463018.886032785
2,1, 7,21, 0,10,20.00,30.00,SummerDesignDay
8,15.852017409284228
10,70053166.96754481
618,0.0
655,28008795.24231246
2,1, 7,21, 0,10,30.00,40.00,SummerDesignDay
8,15.974848118364367
10,70053166.96754481
618,0.0
655,45959969.427751708
2,1, 7,21, 0,10,40.00,50.00,SummerDesignDay
8,16.097123145563505
10,70053166.96754481
618,0.0
655,53489137.976129259
2,1, 7,21, 0,10,50.00,60.00,SummerDesignDay
8,16.218846351168599
10,70053166.96754481
618,0.0
655,68454639.60825333
2,1, 7,21, 0,10, 0.00,60.00,SummerDesignDay
344,23.981592242420047
384,23.040198901863076
424,23.62210678662774
464,23.432984754358004
504,23.27283403306724
2,1, 7,21, 0,11, 0.00,10.00,SummerDesignDay
8,16.325793027093189
10,86950526.33624797
618,0.0
655,105139311.01449798
2,1, 7,21, 0,11,10.00,20.00,SummerDesignDay
8,16.432322158488288
10,86950526.33624797
618,0.0
655,108441081.8593864
2,1, 7,21, 0,11,20.00,30.00,SummerDesignDay
8,16.538424180249178
10,86950526.33624797
618,0.0
655,117521961.28521419
2,1, 7,21, 0,11,30.00,40.00,SummerDesignDay
8,16.644108396469087
10,86950526.33624797
618,0.0
655,125285157.31507913
2,1, 7,21, 0,11,40.00,50.00,SummerDesignDay
8,16.749376736593655
10,86950526.33624797
618,0.0
655,132351288.4206688
2,1, 7,21, 0,11,50.00,60.00,SummerDesignDay
8,16.854232613237156
10,86950526.33624797
618,0.0
655,139188122.55887795
2,1, 7,21, 0,11, 0.00,60.00,SummerDesignDay
344,23.999999999999959
384,23.998317866945717
424,23.999999995381633
464,23.99999996605919
504,23.99999002319247
2,1, 7,21, 0,12, 0.00,10.00,SummerDesignDay
8,16.92390823520069
10,103847885.70495105
618,0.0
655,175716698.71483679
2,1, 7,21, 0,12,10.00,20.00,SummerDesignDay
8,16.99340178950456
10,103847885.70495105
618,0.0
655,183145941.639753
2,1, 7,21, 0,12,20.00,30.00,SummerDesignDay
8,17.06272006743463
10,103847885.70495105
618,0.0
655,187979672.8437804
2,1, 7,21, 0,12,30.00,40.00,SummerDesignDay
8,17.131853229172639
10,103847885.70495105
618,0.0
655,193063900.07101275
2,1, 7,21, 0,12,40.00,50.00,SummerDesignDay
8,17.200807172194087
10,103847885.70495105
618,0.0
655,197807883.46500043
2,1, 7,21, 0,12,50.00,60.00,SummerDesignDay
8,17.269582116758607
10,103847885.70495105
618,0.0
655,202394760.38498078
2,1, 7,21, 0,12, 0.00,60.00,SummerDesignDay
344,24.00000000000003
384,23.9999983624172
424,24.000000000000015
464,23.999999999999976
504,23.99999999999066
2,1, 7,21, 0,13, 0.00,10.00,SummerDesignDay
8,17.32447360221357
10,103847885.70495105
618,0.0
655,234032284.21685416
2,1, 7,21, 0,13,10.00,20.00,SummerDesignDay
8,17.379251291230806
10,103847885.70495105
618,0.0
655,239517627.6012588
2,1, 7,21, 0,13,20.00,30.00,SummerDesignDay
8,17.433921312061729
10,103847885.70495105
618,0.0
655,243843542.5796172
2,1, 7,21, 0,13,30.00,40.00,SummerDesignDay
8,17.488473222557489
10,103847885.70495105
618,0.0
655,248179685.18895573
2,1, 7,21, 0,13,40.00,50.00,SummerDesignDay
8,17.542913447755134
10,103847885.70495105
618,0.0
655,252185953.24422536
2,1, 7,21, 0,13,50.00,60.00,SummerDesignDay
8,17.59724609886134
10,103847885.70495105
618,0.0
655,255609274.82491229
2,1, 7,21, 0,13, 0.00,60.00,SummerDesignDay
344,24.00000000000003
384,23.99999999867448
424,24.000000000000026
464,24.000000000000033
504,24.0
2,1, 7,21, 0,14, 0.00,10.00,SummerDesignDay
8,17.6311450462694
10,103847885.70495105
618,0.0
655,250589625.78476835
2,1, 7,21, 0,14,10.00,20.00,SummerDesignDay
8,17.665000449016245
10,103847885.70495105
618,0.0
655,252000128.70266799
2,1, 7,21, 0,14,20.00,30.00,SummerDesignDay
8,17.698812743128934
10,103847885.70495105
618,0.0
655,253669611.10388396
2,1, 7,21, 0,14,30.00,40.00,SummerDesignDay
8,17.732582050940107
10,103847885.70495105
618,0.0
655,255283440.9038387
2,1, 7,21, 0,14,40.00,50.00,SummerDesignDay
8,17.766307345121004
10,103847885.70495105
618,0.0
655,256918099.52986593
2,1, 7,21, 0,14,50.00,60.00,SummerDesignDay
8,17.79999023167558
10,103847885.70495105
618,0.0
655,258573676.43373133
2,1, 7,21, 0,14, 0.00,60.00,SummerDesignDay
344,24.00000000000001
384,23.999999999999017
424,24.000000000000044
464,24.000000000000019
504,23.999999999999959
2,1, 7,21, 0,15, 0.00,10.00,SummerDesignDay
8,17.79999023167558
10,103847885.70495105
618,0.0
655,239070832.37413947
2,1, 7,21, 0,15,10.00,20.00,SummerDesignDay
8,17.79999023167558
10,103847885.70495105
618,0.0
655,238045998.0640843
2,1, 7,21, 0,15,20.00,30.00,SummerDesignDay
8,17.79999023167558
10,103847885.70495105
618,0.0
655,237760356.23001109
2,1, 7,21, 0,15,30.00,40.00,SummerDesignDay
8,17.79999023167558
10,103847885.70495105
618,0.0
655,237398552.1503331
2,1, 7,21, 0,15,40.00,50.00,SummerDesignDay
8,17.79999023167558
10,103847885.70495105
618,0.0
655,237133595.83492203
2,1, 7,21, 0,15,50.00,60.00,SummerDesignDay
8,17.79999023167558
10,103847885.70495105
618,0.0
655,236938702.73587824
2,1, 7,21, 0,15, 0.00,60.00,SummerDesignDay
344,24.000000000000019
384,24.0
424,24.0
464,24.000000000000019
504,24.000000000000033
2,1, 7,21, 0,16, 0.00,10.00,SummerDesignDay
8,17.759562446305357
10,103847885.70495105
618,0.0
655,214279319.99128006
2,1, 7,21, 0,16,10.00,20.00,SummerDesignDay
8,17.71907809634183
10,103847885.70495105
618,0.0
655,210854489.84032134
2,1, 7,21, 0,16,20.00,30.00,SummerDesignDay
8,17.67853788661001
10,103847885.70495105
618,0.0
655,208203114.55475239
2,1, 7,21, 0,16,30.00,40.00,SummerDesignDay
8,17.63791796367351
10,103847885.70495105
618,0.0
655,205448488.17862959
2,1, 7,21, 0,16,40.00,50.00,SummerDesignDay
8,17.59724609886134
10,103847885.70495105
618,0.0
655,202776270.68385873
2,1, 7,21, 0,16,50.00,60.00,SummerDesignDay
8,17.55650676726033
10,103847885.70495105
618,0.0
655,200189869.72824935
2,1, 7,21, 0,16, 0.00,60.00,SummerDesignDay
344,24.000000000000019
384,24.0
424,24.000000000000033
464,24.000000000000047
504,24.00000000000001
2,1, 7,21, 0,17, 0.00,10.00,SummerDesignDay
8,17.50209486331892
10,103847885.70495105
618,0.0
655,197145173.5615901
2,1, 7,21, 0,17,10.00,20.00,SummerDesignDay
8,17.447570789624618
10,103847885.70495105
618,0.0
655,193847177.18636648
2,1, 7,21, 0,17,20.00,30.00,SummerDesignDay
8,17.392929544208135
10,103847885.70495105
618,0.0
655,190557347.20192794
2,1, 7,21, 0,17,30.00,40.00,SummerDesignDay
8,17.33818013976614
10,103847885.70495105
618,0.0
655,187280658.8316621
2,1, 7,21, 0,17,40.00,50.00,SummerDesignDay
8,17.283317298559309
10,103847885.70495105
618,0.0
655,184015436.58763055
2,1, 7,21, 0,17,50.00,60.00,SummerDesignDay
8,17.22833552437677
10,103847885.70495105
618,0.0
655,180759171.84245698
2,1, 7,21, 0,17, 0.00,60.00,SummerDesignDay
344,24.00000000000004
384,24.0
424,23.999999999999948
464,24.0
504,23.99999999999997
2,1, 7,21, 0,18, 0.00,10.00,SummerDesignDay
8,17.159453019160176
10,103847885.70495105
618,0.0
655,182586211.03600479
2,1, 7,21, 0,18,10.00,20.00,SummerDesignDay
8,17.090391773337136
10,103847885.70495105
618,0.0
655,178893689.775206
2,1, 7,21, 0,18,20.00,30.00,SummerDesignDay
8,17.021151077964786
10,103847885.70495105
618,0.0
655,174916420.1054241
2,1, 7,21, 0,18,30.00,40.00,SummerDesignDay
8,16.951729380464653
10,103847885.70495105
618,0.0
655,170972785.5023079
2,1, 7,21, 0,18,40.00,50.00,SummerDesignDay
8,16.882126503829249
10,103847885.70495105
618,0.0
655,167011519.3456878
2,1, 7,21, 0,18,50.00,60.00,SummerDesignDay
8,16.812341807494034
10,103847885.70495105
618,0.0
655,163030064.24739505
2,1, 7,21, 0,18, 0.00,60.00,SummerDesignDay
344,24.000000000000019
384,24.00000000000001
424,24.000000000000015
464,24.00000000000004
504,24.0
2,1, 7,21, 0,19, 0.00,10.00,SummerDesignDay
8,16.707321072823203
10,103847885.70495105
618,0.0
655,175912288.48104278
2,1, 7,21, 0,19,10.00,20.00,SummerDesignDay
8,16.601881826644556
10,103847885.70495105
618,0.0
655,171078368.2641204
2,1, 7,21, 0,19,20.00,30.00,SummerDesignDay
8,16.496030555252849
10,103847885.70495105
618,0.0
655,165458134.14175637
2,1, 7,21, 0,19,30.00,40.00,SummerDesignDay
8,16.389760181474104
10,103847885.70495105
618,0.0
655,159938560.80943344
2,1, 7,21, 0,19,40.00,50.00,SummerDesignDay
8,16.283067654262039
10,103847885.70495105
618,0.0
655,154246028.26683576
2,1, 7,21, 0,19,50.00,60.00,SummerDesignDay
8,16.17595057957811
10,103847885.70495105
618,0.0
655,148442559.64737103
2,1, 7,21, 0,19, 0.00,60.00,SummerDesignDay
344,24.000000000000026
384,23.999999999999984
424,24.0
464,24.000000000000019
504,24.000000000000047
2,1, 7,21, 0,20, 0.00,10.00,SummerDesignDay
8,16.097123145563505
10,94577962.85635537
618,0.0
655,158171474.57822264
2,1, 7,21, 0,20,10.00,20.00,SummerDesignDay
8,16.018070242471564
10,94577962.85635537
618,0.0
655,154481577.50243194
2,1, 7,21, 0,20,20.00,30.00,SummerDesignDay
8,15.938779752340516
10,94577962.85635537
618,0.0
655,150576454.4474441
2,1, 7,21, 0,20,30.00,40.00,SummerDesignDay
8,15.85926152575189
10,94577962.85635537
618,0.0
655,146647613.5578534
2,1, 7,21, 0,20,40.00,50.00,SummerDesignDay
8,15.779503718563929
10,94577962.85635537
618,0.0
655,142535359.92309196
2,1, 7,21, 0,20,50.00,60.00,SummerDesignDay
8,15.699515709672767
10,94577962.85635537
618,0.0
655,138200592.18318326
2,1, 7,21, 0,20, 0.00,60.00,SummerDesignDay
344,24.00000000000001
384,24.000000000000026
424,24.00000000000007
464,24.000000000000058
504,24.000000000000047
2,1, 7,21, 0,21, 0.00,10.00,SummerDesignDay
8,15.63389147320404
10,91487988.57349015
618,0.0
655,131542931.815395
2,1, 7,21, 0,21,10.00,20.00,SummerDesignDay
8,15.56810827419793
10,91487988.57349015
618,0.0
655,127416587.37531413
2,1, 7,21, 0,21,20.00,30.00,SummerDesignDay
8,15.502170882753524
10,91487988.57349015
618,0.0
655,123600027.6895324
2,1, 7,21, 0,21,30.00,40.00,SummerDesignDay
8,15.436068032613852
10,91487988.57349015
618,0.0
655,120056900.38725132
2,1, 7,21, 0,21,40.00,50.00,SummerDesignDay
8,15.369804371206009
10,91487988.57349015
618,0.0
655,118336701.61363185
2,1, 7,21, 0,21,50.00,60.00,SummerDesignDay
8,15.303384603594449
10,91487988.57349015
618,0.0
655,116606951.45103197
2,1, 7,21, 0,21, 0.00,60.00,SummerDesignDay
344,24.00000000000001
384,23.95585707847762
424,24.000000000000044
464,24.00000000000004
504,24.00000000000006
2,1, 7,21, 0,22, 0.00,10.00,SummerDesignDay
8,15.236797685071274
10,77583104.30059661
618,0.0
655,104173934.39210499
2,1, 7,21, 0,22,10.00,20.00,SummerDesignDay
8,15.170047891787942
10,77583104.30059661
618,0.0
655,102838866.67340827
2,1, 7,21, 0,22,20.00,30.00,SummerDesignDay
8,15.103134826860483
10,77583104.30059661
618,0.0
655,101456946.30954755
2,1, 7,21, 0,22,30.00,40.00,SummerDesignDay
8,15.036063385178485
10,77583104.30059661
618,0.0
655,100088161.39172134
2,1, 7,21, 0,22,40.00,50.00,SummerDesignDay
8,14.968821767219835
10,77583104.30059661
618,0.0
655,98736594.49627793
2,1, 7,21, 0,22,50.00,60.00,SummerDesignDay
8,14.90141525878635
10,77583104.30059661
618,0.0
655,97398813.03198588
2,1, 7,21, 0,22, 0.00,60.00,SummerDesignDay
344,23.454900747344309
384,23.322449874232807
424,24.000000000000047
464,24.000000000000019
504,24.00000000000007
2,1, 7,21, 0,23, 0.00,10.00,SummerDesignDay
8,14.848873673278373
10,77583104.30059661
618,0.0
655,79937359.70113732
2,1, 7,21, 0,23,10.00,20.00,SummerDesignDay
8,14.796237168136719
10,77583104.30059661
618,0.0
655,77874687.78537143
2,1, 7,21, 0,23,20.00,30.00,SummerDesignDay
8,14.743494321455645
10,77583104.30059661
618,0.0
655,76335804.31472966
2,1, 7,21, 0,23,30.00,40.00,SummerDesignDay
8,14.690649975253665
10,77583104.30059661
618,720070.0285098346
655,74786389.20734763
2,1, 7,21, 0,23,40.00,50.00,SummerDesignDay
8,14.637704281233117
10,77583104.30059661
618,2462186.2997717757
655,73369896.46719469
2,1, 7,21, 0,23,50.00,60.00,SummerDesignDay
8,14.584656914839757
10,77583104.30059661
618,3502307.7998255717
655,72043807.65654926
2,1, 7,21, 0,23, 0.00,60.00,SummerDesignDay
344,22.608754591257506
384,22.212051370184669
424,24.00000000000004
464,24.00000000000006
504,24.000000000000026
2,1, 7,21, 0,24, 0.00,10.00,SummerDesignDay
8,14.531507212058875
10,77583104.30059661
618,7970101.798818992
655,59658316.34487952
2,1, 7,21, 0,24,10.00,20.00,SummerDesignDay
8,14.47825496413355
10,77583104.30059661
618,9352995.33604245
655,57933978.10208536
2,1, 7,21, 0,24,20.00,30.00,SummerDesignDay
8,14.4249000133173
10,77583104.30059661
618,10588736.702549888
655,56603727.40434885
2,1, 7,21, 0,24,30.00,40.00,SummerDesignDay
8,14.371447531304272
10,77583104.30059661
618,11818296.320269105
655,55212444.058410469
2,1, 7,21, 0,24,40.00,50.00,SummerDesignDay
8,14.31788619902223
10,77583104.30059661
618,13029157.456056269
655,53840182.92922084
2,1, 7,21, 0,24,50.00,60.00,SummerDesignDay
8,14.264220970176066
10,77583104.30059661
618,14230232.45541601
655,52518286.87791399
2,1, 7,21, 0,24, 0.00,60.00,SummerDesignDay
344,21.981850651356809
384,22.000310400893615
424,24.000000000000015
464,24.000000000000044
504,24.00000000000004
3,1, 7,21, 0,SummerDesignDay
345,48.01615257580491,40.86272933856232,20,60,60.86194968082456, 6,60
385,51.1292730183192,41.1344628727387,16,30,65.31141314444246, 5,30
425,47.83257181756133,41.775876664740668,17,60,59.672456234265549, 6,60
465,49.34192981700903,42.63475206475162,17,60,60.621162793741, 6,60
505,50.786556244013329,42.70398633684277,17,60,61.666842784332889, 6,50
4,1, 7
7,22.2505,16.5,21, 5,60,28.9,21,14,60
1,FORT MCMURRAY AP ANN HTG 99.6% CONDNS DB,  56.65,-111.22,  -7.00, 369.10
2,1, 1,21, 0, 1, 0.00,10.00,WinterDesignDay
8,-36.2
10,77583104.30059661
618,835883897.0190387
655,0.0
2,1, 1,21, 0, 1,10.00,20.00,WinterDesignDay
8,-36.2
10,77583104.30059661
618,836234866.976502
655,0.0
2,1, 1,21, 0, 1,20.00,30.00,WinterDesignDay
8,-36.2
10,77583104.30059661
618,836263485.5310766
655,0.0
2,1, 1,21, 0, 1,30.00,40.00,WinterDesignDay
8,-36.2
10,77583104.30059661
618,836352009.365746
655,0.0
2,1, 1,21, 0, 1,40.00,50.00,WinterDesignDay
8,-36.2
10,77583104.30059661
618,836415954.9856545
655,0.0
2,1, 1,21, 0, 1,50.00,60.00,WinterDesignDay
8,-36.2
10,77583104.30059661
618,836467049.6174673
655,0.0
2,1, 1,21, 0, 1, 0.00,60.00,WinterDesignDay
344,18.000000000000015
384,22.000000000000005
424,22.000000000000044
464,22.000000000000026
504,22.000000000000019
2,1, 1,21, 0, 2, 0.00,10.00,WinterDesignDay
8,-36.2
10,43788385.56319039
618,873187537.3242965
655,0.0
2,1, 1,21, 0, 2,10.00,20.00,WinterDesignDay
8,-36.2
10,43788385.56319039
618,875517134.4565718
655,0.0
2,1, 1,21, 0, 2,20.00,30.00,WinterDesignDay
8,-36.2
10,43788385.56319039
618,876151442.9858536
655,0.0
2,1, 1,21, 0, 2,30.00,40.00,WinterDesignDay
8,-36.2
10,43788385.56319039
618,876854520.8018375
655,0.0
2,1, 1,21, 0, 2,40.00,50.00,WinterDesignDay
8,-36.2
10,43788385.56319039
618,877350846.5004147
655,0.0
2,1, 1,21, 0, 2,50.00,60.00,WinterDesignDay
8,-36.2
10,43788385.56319039
618,877749551.4623457
655,0.0
2,1, 1,21, 0, 2, 0.00,60.00,WinterDesignDay
344,18.000000000000008
384,22.000000000000005
424,22.00000000000001
464,22.00000000000001
504,22.00000000000001
2,1, 1,21, 0, 3, 0.00,10.00,WinterDesignDay
8,-36.2
10,9993666.82578417
618,684300795.7788048
655,0.0
2,1, 1,21, 0, 3,10.00,20.00,WinterDesignDay
8,-36.2
10,9993666.82578417
618,788785715.1121587
655,0.0
2,1, 1,21, 0, 3,20.00,30.00,WinterDesignDay
8,-36.2
10,9993666.82578417
618,811030253.1263256
655,0.0
2,1, 1,21, 0, 3,30.00,40.00,WinterDesignDay
8,-36.2
10,9993666.82578417
618,829066494.5258197
655,0.0
2,1, 1,21, 0, 3,40.00,50.00,WinterDesignDay
8,-36.2
10,9993666.82578417
618,836569694.072526
655,0.0
2,1, 1,21, 0, 3,50.00,60.00,WinterDesignDay
8,-36.2
10,9993666.82578417
618,838452936.8014528
655,0.0
2,1, 1,21, 0, 3, 0.00,60.00,WinterDesignDay
344,18.000000000000008
384,18.02103997258041
424,18.106359326322118
464,18.10473551726226
504,18.10311232193476
2,1, 1,21, 0, 4, 0.00,10.00,WinterDesignDay
8,-36.2
10,9993666.82578417
618,839810770.6641134
655,0.0
2,1, 1,21, 0, 4,10.00,20.00,WinterDesignDay
8,-36.2
10,9993666.82578417
618,840833449.495906
655,0.0
2,1, 1,21, 0, 4,20.00,30.00,WinterDesignDay
8,-36.2
10,9993666.82578417
618,841633097.8825374
655,0.0
2,1, 1,21, 0, 4,30.00,40.00,WinterDesignDay
8,-36.2
10,9993666.82578417
618,842237726.1783762
655,0.0
2,1, 1,21, 0, 4,40.00,50.00,WinterDesignDay
8,-36.2
10,9993666.82578417
618,842717401.283851
655,0.0
2,1, 1,21, 0, 4,50.00,60.00,WinterDesignDay
8,-36.2
10,9993666.82578417
618,843081580.9611163
655,0.0
2,1, 1,21, 0, 4, 0.00,60.00,WinterDesignDay
344,18.0
384,18.000000165219036
424,18.00000000004908
464,18.000000000050155
504,18.000000000051434
2,1, 1,21, 0, 5, 0.00,10.00,WinterDesignDay
8,-36.2
10,9993666.82578417
618,843376211.8695201
655,0.0
2,1, 1,21, 0, 5,10.00,20.00,WinterDesignDay
8,-36.2
10,9993666.82578417
618,843599026.7989442
655,0.0
2,1, 1,21, 0, 5,20.00,30.00,WinterDesignDay
8,-36.2
10,9993666.82578417
618,843765200.9695566
655,0.0
2,1, 1,21, 0, 5,30.00,40.00,WinterDesignDay
8,-36.2
10,9993666.82578417
618,843909700.1707299
655,0.0
2,1, 1,21, 0, 5,40.00,50.00,WinterDesignDay
8,-36.2
10,9993666.82578417
618,844033397.8018216
655,0.0
2,1, 1,21, 0, 5,50.00,60.00,WinterDesignDay
8,-36.2
10,9993666.82578417
618,844118572.067559
655,0.0
2,1, 1,21, 0, 5, 0.00,60.00,WinterDesignDay
344,18.000000000000005
384,18.000000000126119
424,18.00000000000001
464,18.000000000000005
504,18.000000000000005
2,1, 1,21, 0, 6, 0.00,10.00,WinterDesignDay
8,-36.2
10,9993666.82578417
618,844191721.4880797
655,0.0
2,1, 1,21, 0, 6,10.00,20.00,WinterDesignDay
8,-36.2
10,9993666.82578417
618,844258028.4591018
655,0.0
2,1, 1,21, 0, 6,20.00,30.00,WinterDesignDay
8,-36.2
10,9993666.82578417
618,844315062.3466717
655,0.0
2,1, 1,21, 0, 6,30.00,40.00,WinterDesignDay
8,-36.2
10,9993666.82578417
618,844363255.6264118
655,0.0
2,1, 1,21, 0, 6,40.00,50.00,WinterDesignDay
8,-36.2
10,9993666.82578417
618,844403787.9677043
655,0.0
2,1, 1,21, 0, 6,50.00,60.00,WinterDesignDay
8,-36.2
10,9993666.82578417
618,844437901.9928318
655,0.0
2,1, 1,21, 0, 6, 0.00,60.00,WinterDesignDay
344,18.0
384,18.000000000000104
424,18.00000000000001
464,18.0
504,18.000000000000005
2,1, 1,21, 0, 7, 0.00,10.00,WinterDesignDay
8,-36.2
10,9993666.82578417
618,844466703.140115
655,0.0
2,1, 1,21, 0, 7,10.00,20.00,WinterDesignDay
8,-36.2
10,9993666.82578417
618,844491120.7822325
655,0.0
2,1, 1,21, 0, 7,20.00,30.00,WinterDesignDay
8,-36.2
10,9993666.82578417
618,844505988.0107235
655,0.0
2,1, 1,21, 0, 7,30.00,40.00,WinterDesignDay
8,-36.2
10,9993666.82578417
618,844518328.2253481
655,0.0
2,1, 1,21, 0, 7,40.00,50.00,WinterDesignDay
8,-36.2
10,9993666.82578417
618,844530860.4694312
655,0.0
2,1, 1,21, 0, 7,50.00,60.00,WinterDesignDay
8,-36.2
10,9993666.82578417
618,844542818.3110615
655,0.0
2,1, 1,21, 0, 7, 0.00,60.00,WinterDesignDay
344,18.000000000000005
384,18.000000000000005
424,18.000000000000015
464,18.0
504,18.000000000000005
2,1, 1,21, 0, 8, 0.00,10.00,WinterDesignDay
8,-36.2
10,9993666.82578417
618,879978426.5376105
655,0.0
2,1, 1,21, 0, 8,10.00,20.00,WinterDesignDay
8,-36.2
10,9993666.82578417
618,826621906.3726255
655,0.0
2,1, 1,21, 0, 8,20.00,30.00,WinterDesignDay
8,-36.2
10,9993666.82578417
618,859816235.3163897
655,0.0
2,1, 1,21, 0, 8,30.00,40.00,WinterDesignDay
8,-36.2
10,9993666.82578417
618,851878006.0035329
655,0.0
2,1, 1,21, 0, 8,40.00,50.00,WinterDesignDay
8,-36.2
10,9993666.82578417
618,851693047.6129662
655,0.0
2,1, 1,21, 0, 8,50.00,60.00,WinterDesignDay
8,-36.2
10,9993666.82578417
618,851500711.6676476
655,0.0
2,1, 1,21, 0, 8, 0.00,60.00,WinterDesignDay
344,20.002675102281939
384,18.000000000000005
424,18.00000000000001
464,18.0
504,18.000000000000005
2,1, 1,21, 0, 9, 0.00,10.00,WinterDesignDay
8,-36.2
10,23898551.098677696
618,998162932.0403075
655,0.0
2,1, 1,21, 0, 9,10.00,20.00,WinterDesignDay
8,-36.2
10,23898551.098677696
618,788344634.463032
655,0.0
2,1, 1,21, 0, 9,20.00,30.00,WinterDesignDay
8,-36.2
10,23898551.098677696
618,916748458.313468
655,0.0
2,1, 1,21, 0, 9,30.00,40.00,WinterDesignDay
8,-36.2
10,23898551.098677696
618,886590665.9922392
655,0.0
2,1, 1,21, 0, 9,40.00,50.00,WinterDesignDay
8,-36.2
10,23898551.098677696
618,885381361.7605534
655,0.0
2,1, 1,21, 0, 9,50.00,60.00,WinterDesignDay
8,-36.2
10,23898551.098677696
618,884415469.2131595
655,0.0
2,1, 1,21, 0, 9, 0.00,60.00,WinterDesignDay
344,22.00272445694368
384,19.996583685608195
424,19.997524486480157
464,19.997346999451595
504,19.997228869804095
2,1, 1,21, 0,10, 0.00,10.00,WinterDesignDay
8,-36.2
10,70053166.96754481
618,960962550.9945417
655,0.0
2,1, 1,21, 0,10,10.00,20.00,WinterDesignDay
8,-36.2