Program Version,EnergyPlus, Version 8.9.0-eba93e8e1b, YMD=2019.03.20 17:58
1,5,Environment Title[],Latitude[deg],Longitude[deg],Time Zone[],Elevation[m]
2,8,Day of Simulation[],Month[],Day of Month[],DST Indicator[1=yes 0=no],Hour[],StartMinute[],EndMinute[],DayType
3,5,Cumulative Day of Simulation[],Month[],Day of Month[],DST Indicator[1=yes 0=no],DayType  ! When Daily Report Variables Requested
4,2,Cumulative Days of Simulation[],Month[]  ! When Monthly Report Variables Requested
5,1,Cumulative Days of Simulation[] ! When Run Period Report Variables Requested
6,1,Calendar Year of Simulation[] ! When Annual Report Variables Requested
7,9,Environment,Site Outdoor Air Drybulb Temperature [C] !Monthly [Value,Min,Day,Hour,Minute,Max,Day,Hour,Minute]
8,1,Environment,Site Outdoor Air Wetbulb Temperature [C] !TimeStep
943,1,ALL_ST=HOTEL/MOTEL - DINING_FL=STORY 2_SCH=B,Zone Air Temperature [C] !Hourly
944,7,ALL_ST=HOTEL/MOTEL - DINING_FL=STORY 2_SCH=B,Zone Air Relative Humidity [%] !Daily [Value,Min,Hour,Minute,Max,Hour,Minute]
983,1,ALL_ST=HOTEL/MOTEL - LOBBY_FL=STORY 3_SCH=H,Zone Air Temperature [C] !Hourly
984,7,ALL_ST=HOTEL/MOTEL - LOBBY_FL=STORY 3_SCH=H,Zone Air Relative Humidity [%] !Daily [Value,Min,Hour,Minute,Max,Hour,Minute]
1023,1,ALL_ST=HWAY LODGING - DINING_FL=STORY 2_SCH=B,Zone Air Temperature [C] !Hourly
1024,7,ALL_ST=HWAY LODGING - DINING_FL=STORY 2_SCH=B,Zone Air Relative Humidity [%] !Daily [Value,Min,Hour,Minute,Max,Hour,Minute]
1063,1,ALL_ST=LAB - CLASSROOMS_FL=STORY 2_SCH=D,Zone Air Temperature [C] !Hourly
1064,7,ALL_ST=LAB - CLASSROOMS_FL=STORY 2_SCH=D,Zone Air Relative Humidity [%] !Daily [Value,Min,Hour,Minute,Max,Hour,Minute]
1103,1,DU_BT=SPACE FUNCTION_ST=HOTEL/MOTEL - ROOMS_FL=STORY 2_SCHF,Zone Air Temperature [C] !Hourly
1104,7,DU_BT=SPACE FUNCTION_ST=HOTEL/MOTEL - ROOMS_FL=STORY 2_SCHF,Zone Air Relative Humidity [%] !Daily [Value,Min,Hour,Minute,Max,Hour,Minute]
1143,1,DU_BT=SPACE FUNCTION_ST=HWAY LODGING - ROOMS_FL=STORY 3_SCHF,Zone Air Temperature [C] !Hourly
1144,7,DU_BT=SPACE FUNCTION_ST=HWAY LODGING - ROOMS_FL=STORY 3_SCHF,Zone Air Relative Humidity [%] !Daily [Value,Min,Hour,Minute,Max,Hour,Minute]
1183,1,WILD_ST=HOSPITAL CORR. < 2.4M-SCH-E_FL=STORY 4_SCH=B,Zone Air Temperature [C] !Hourly
1184,7,WILD_ST=HOSPITAL CORR. < 2.4M-SCH-E_FL=STORY 4_SCH=B,Zone Air Relative Humidity [%] !Daily [Value,Min,Hour,Minute,Max,Hour,Minute]
1223,1,WILD_ST=HOSPITAL CORR. < 2.4M-SCH-F_FL=STORY 4_SCH=B,Zone Air Temperature [C] !Hourly
1224,7,WILD_ST=HOSPITAL CORR. < 2.4M-SCH-F_FL=STORY 4_SCH=B,Zone Air Relative Humidity [%] !Daily [Value,Min,Hour,Minute,Max,Hour,Minute]
1263,1,WILD_ST=HOSPITAL CORR. < 2.4M-SCH-G_FL=STORY 4_SCH=B,Zone Air Temperature [C] !Hourly
1264,7,WILD_ST=HOSPITAL CORR. < 2.4M-SCH-G_FL=STORY 4_SCH=B,Zone Air Relative Humidity [%] !Daily [Value,Min,Hour,Minute,Max,Hour,Minute]
1303,1,WILD_ST=HOSPITAL CORR. < 2.4M-SCH-H_FL=STORY 4_SCH=B,Zone Air Temperature [C] !Hourly
1304,7,WILD_ST=HOSPITAL CORR. < 2.4M-SCH-H_FL=STORY 4_SCH=B,Zone Air Relative Humidity [%] !Daily [Value,Min,Hour,Minute,Max,Hour,Minute]
1343,1,WILD_ST=HOSPITAL CORR. < 2.4M-SCH-I_FL=STORY 3_SCH=B,Zone Air Temperature [C] !Hourly
1344,7,WILD_ST=HOSPITAL CORR. < 2.4M-SCH-I_FL=STORY 3_SCH=B,Zone Air Relative Humidity [%] !Daily [Value,Min,Hour,Minute,Max,Hour,Minute]
1383,1,WILD_ST=HOSPITAL CORR. >= 2.4M-SCH-A_FL=STORY 3_SCH=B,Zone Air Temperature [C] !Hourly
1384,7,WILD_ST=HOSPITAL CORR. >= 2.4M-SCH-A_FL=STORY 3_SCH=B,Zone Air Relative Humidity [%] !Daily [Value,Min,Hour,Minute,Max,Hour,Minute]
1423,1,WILD_ST=HOSPITAL CORR. >= 2.4M-SCH-B_FL=STORY 3_SCH=B,Zone Air Temperature [C] !Hourly
1424,7,WILD_ST=HOSPITAL CORR. >= 2.4M-SCH-B_FL=STORY 3_SCH=B,Zone Air Relative Humidity [%] !Daily [Value,Min,Hour,Minute,Max,Hour,Minute]
1463,1,WILD_ST=HOSPITAL CORR. >= 2.4M-SCH-C_FL=STORY 1_SCH=B,Zone Air Temperature [C] !Hourly
1464,7,WILD_ST=HOSPITAL CORR. >= 2.4M-SCH-C_FL=STORY 1_SCH=B,Zone Air Relative Humidity [%] !Daily [Value,Min,Hour,Minute,Max,Hour,Minute]
1503,1,WILD_ST=HOSPITAL CORR. >= 2.4M-SCH-D_FL=STORY 1_SCH=B,Zone Air Temperature [C] !Hourly
1504,7,WILD_ST=HOSPITAL CORR. >= 2.4M-SCH-D_FL=STORY 1_SCH=B,Zone Air Relative Humidity [%] !Daily [Value,Min,Hour,Minute,Max,Hour,Minute]
1543,1,WILD_ST=HOSPITAL CORR. >= 2.4M-SCH-E_FL=STORY 4_SCH=B,Zone Air Temperature [C] !Hourly
1544,7,WILD_ST=HOSPITAL CORR. >= 2.4M-SCH-E_FL=STORY 4_SCH=B,Zone Air Relative Humidity [%] !Daily [Value,Min,Hour,Minute,Max,Hour,Minute]
1583,1,WILD_ST=HOSPITAL CORR. >= 2.4M-SCH-F_FL=STORY 1_SCH=B,Zone Air Temperature [C] !Hourly
1584,7,WILD_ST=HOSPITAL CORR. >= 2.4M-SCH-F_FL=STORY 1_SCH=B,Zone Air Relative Humidity [%] !Daily [Value,Min,Hour,Minute,Max,Hour,Minute]
1623,1,WILD_ST=HOSPITAL CORR. >= 2.4M-SCH-G_FL=STORY 1_SCH=B,Zone Air Temperature [C] !Hourly
1624,7,WILD_ST=HOSPITAL CORR. >= 2.4M-SCH-G_FL=STORY 1_SCH=B,Zone Air Relative Humidity [%] !Daily [Value,Min,Hour,Minute,Max,Hour,Minute]
1663,1,WILD_ST=HOSPITAL CORR. >= 2.4M-SCH-H_FL=STORY 1_SCH=B,Zone Air Temperature [C] !Hourly
1664,7,WILD_ST=HOSPITAL CORR. >= 2.4M-SCH-H_FL=STORY 1_SCH=B,Zone Air Relative Humidity [%] !Daily [Value,Min,Hour,Minute,Max,Hour,Minute]
1703,1,WILD_ST=HOSPITAL CORR. >= 2.4M-SCH-I_FL=STORY 2_SCH=B,Zone Air Temperature [C] !Hourly
1704,7,WILD_ST=HOSPITAL CORR. >= 2.4M-SCH-I_FL=STORY 2_SCH=B,Zone Air Relative Humidity [%] !Daily [Value,Min,Hour,Minute,Max,Hour,Minute]
10,1,Electricity:Facility [J] !TimeStep
709,1,Gas:Facility [J] !TimeStep
End of Data Dictionary
1,FORT MCMURRAY AP ANN CLG .4% CONDNS DB=>MWB,  56.65,-111.22,  -7.00, 369.10
2,1, 7,21, 0, 1, 0.00,10.00,SummerDesignDay
8,14.218136923962174
10,244624443.11957149
709,58728805.18092038
2,1, 7,21, 0, 1,10.00,20.00,SummerDesignDay
8,14.171982153293495
10,242658778.4060054
709,58205179.15232074
2,1, 7,21, 0, 1,20.00,30.00,SummerDesignDay
8,14.125744780286427
10,241435525.644497
709,58499423.73684595
2,1, 7,21, 0, 1,30.00,40.00,SummerDesignDay
8,14.079436086331978
10,240253566.6634525
709,72656115.501139
2,1, 7,21, 0, 1,40.00,50.00,SummerDesignDay
8,14.033050387896898
10,239045249.36998276
709,74127237.25095615
2,1, 7,21, 0, 1,50.00,60.00,SummerDesignDay
8,13.986581233564835
10,237849991.7860184
709,59143841.95051827
2,1, 7,21, 0, 1, 0.00,60.00,SummerDesignDay
943,22.83136735911305
983,23.997904946729155
1023,22.987700542577149
1063,22.971520941750897
1103,23.84591229969068
1143,23.847182417763749
1183,24.000072758849883
1223,23.614198847216099
1263,23.68961445698774
1303,23.847664513871917
1343,25.88404104169625
1383,24.874067516028928
1423,25.51292328548172
1463,25.903818127506687
1503,25.565237257826256
1543,23.83524344833295
1583,25.637779137678917
1623,25.39471186719061
1663,25.475193070593247
1703,25.449092724878253
2,1, 7,21, 0, 2, 0.00,10.00,SummerDesignDay
8,13.95555882260429
10,151352416.69153295
709,55859176.69935288
2,1, 7,21, 0, 2,10.00,20.00,SummerDesignDay
8,13.924507755336454
10,150478251.1747633
709,28460166.06193593
2,1, 7,21, 0, 2,20.00,30.00,SummerDesignDay
8,13.893416042989206
10,150309366.20074643
709,55782547.61950131
2,1, 7,21, 0, 2,30.00,40.00,SummerDesignDay
8,13.862289589689029
10,150129202.37045659
709,55957305.33498071
2,1, 7,21, 0, 2,40.00,50.00,SummerDesignDay
8,13.831134407608739
10,149943454.18975214
709,28923232.25958844
2,1, 7,21, 0, 2,50.00,60.00,SummerDesignDay
8,13.799938415548118
10,149766574.37323088
709,57205979.87685295
2,1, 7,21, 0, 2, 0.00,60.00,SummerDesignDay
943,22.16155095309287
983,23.99797156552494
1023,22.302288037211583
1063,22.66900235860935
1103,23.845802782262977
1143,23.846977221924737
1183,23.6323685516064
1223,23.28673404079846
1263,23.33250521882007
1303,23.497535552576804
1343,25.595377741724805
1383,24.671766331007008
1423,25.289459770959245
1463,25.650196599912346
1503,25.297751195345894
1543,23.518549450431878
1583,25.369119430518599
1623,25.131375647921577
1663,25.208734415067288
1703,25.252112649604145
2,1, 7,21, 0, 3, 0.00,10.00,SummerDesignDay
8,13.776521671948676
10,70320413.24090483
709,27287656.43750675
2,1, 7,21, 0, 3,10.00,20.00,SummerDesignDay
8,13.753085235778466
10,69808555.51480808
709,27211510.981361484
2,1, 7,21, 0, 3,20.00,30.00,SummerDesignDay
8,13.729636002354969
10,69630700.4881669
709,32257056.816762836
2,1, 7,21, 0, 3,30.00,40.00,SummerDesignDay
8,13.706147375533054
10,69443477.57455017
709,27449550.831591488
2,1, 7,21, 0, 3,40.00,50.00,SummerDesignDay
8,13.682651961920304
10,69256473.48683428
709,2495414.145388975
2,1, 7,21, 0, 3,50.00,60.00,SummerDesignDay
8,13.659136670643687
10,69073200.5699954
709,27657643.32006426
2,1, 7,21, 0, 3, 0.00,60.00,SummerDesignDay
943,21.521823772636528
983,23.998051596597063
1023,21.645855788975934
1063,22.427589930931963
1103,23.845877500760868
1143,23.846900024113748
1183,22.815200880556778
1223,22.51562147390692
1263,22.53581548185636
1303,22.70491482329645
1343,24.98723545347708
1383,24.141811207248833
1423,24.757509898587533
1463,25.072203359314348
1503,24.689209006550656
1543,22.763772081465175
1583,24.759344003858517
1623,24.528439037017269
1663,24.600664895143198
1703,24.763439335308644
2,1, 7,21, 0, 4, 0.00,10.00,SummerDesignDay
8,13.63560137410855
10,65635052.5319844
709,27216775.35456386
2,1, 7,21, 0, 4,10.00,20.00,SummerDesignDay
8,13.612040802606578
10,65095096.743047829
709,23498618.520458215
2,1, 7,21, 0, 4,20.00,30.00,SummerDesignDay
8,13.58846620506876
10,64894214.94494223
709,6786572.235535616
2,1, 7,21, 0, 4,30.00,40.00,SummerDesignDay
8,13.56487178447336
10,64713604.46887814
709,27542505.54229632
2,1, 7,21, 0, 4,40.00,50.00,SummerDesignDay
8,13.541257354069103
10,64517931.00339434
709,3183468.697022537
2,1, 7,21, 0, 4,50.00,60.00,SummerDesignDay
8,13.517617463812285
10,64334893.89666231
709,27748605.141339184
2,1, 7,21, 0, 4, 0.00,60.00,SummerDesignDay
943,21.15583591701466
983,23.99814558924133
1023,21.286448230172117
1063,22.19839765156041
1103,23.845920941201759
1143,23.846715098653097
1183,22.250454726274297
1223,21.969701321630365
1263,21.969676183835984
1303,22.136000956181964
1343,24.595805113808184
1383,23.73938875721321
1423,24.359511501029418
1463,24.720455730718088
1503,24.308729869706985
1543,22.20842710454103
1583,24.37461857225665
1623,24.170041279460134
1663,24.214691513597349
1703,24.427708639112028
2,1, 7,21, 0, 5, 0.00,10.00,SummerDesignDay
8,13.50185415824011
10,64170966.96149873
709,3378436.3229205685
2,1, 7,21, 0, 5,10.00,20.00,SummerDesignDay
8,13.486076034032447
10,64216017.754456009
709,27878217.295228624
2,1, 7,21, 0, 5,20.00,30.00,SummerDesignDay
8,13.470289340350983
10,64239524.55204774
709,28023448.29334343
2,1, 7,21, 0, 5,30.00,40.00,SummerDesignDay
8,13.454493322631063
10,64257702.40845281
709,3607789.464948658
2,1, 7,21, 0, 5,40.00,50.00,SummerDesignDay
8,13.438688835118548
10,64257209.880272489
709,28147035.32981691
2,1, 7,21, 0, 5,50.00,60.00,SummerDesignDay
8,13.422888173889437
10,64206575.97051053
709,3760689.9001200019
2,1, 7,21, 0, 5, 0.00,60.00,SummerDesignDay
943,20.983059842234778
983,23.99822035041845
1023,21.036467564371283
1063,21.986835930582349
1103,23.84598423424535
1143,23.846525619103816
1183,21.97046955223745
1223,21.705093892646877
1263,21.847006570328206
1303,21.84748139947294
1343,24.354833983536424
1383,23.55806778973134
1423,24.092267788756833
1463,24.5468418547824
1503,24.120006168470657
1543,22.046520652299475
1583,24.172460579336428
1623,24.006657270258683
1663,24.01055923405437
1703,24.224205622735693
2,1, 7,21, 0, 6, 0.00,10.00,SummerDesignDay
8,13.438688835118548
10,64190880.46538814
709,28689751.1176852
2,1, 7,21, 0, 6,10.00,20.00,SummerDesignDay
8,13.454493322631063
10,64466782.472211178
709,28674537.618681395
2,1, 7,21, 0, 6,20.00,30.00,SummerDesignDay
8,13.470289340350983
10,64391189.67379557
709,28603654.899434113
2,1, 7,21, 0, 6,30.00,40.00,SummerDesignDay
8,13.486076034032447
10,64307114.701546978
709,28532106.63236301
2,1, 7,21, 0, 6,40.00,50.00,SummerDesignDay
8,13.50185415824011
10,64218182.68781367
709,28460106.71587328
2,1, 7,21, 0, 6,50.00,60.00,SummerDesignDay
8,13.517617463812285
10,64136372.52646226
709,26093395.690780194
2,1, 7,21, 0, 6, 0.00,60.00,SummerDesignDay
943,21.195331150728973
983,23.99824323422875
1023,20.945540648549355
1063,21.885774253503774
1103,23.846555776476163
1143,23.846854553624455
1183,22.011498561539957
1223,21.780582313369725
1263,22.521989788445866
1303,21.894605712676439
1343,24.209543576576583
1383,23.79562186136539
1423,23.95598725380944
1463,24.447516706219589
1503,24.011401849417138
1543,22.29358353618629
1583,24.046628867150348
1623,23.928509691516095
1663,23.89537368628169
1703,24.13505453394124
2,1, 7,21, 0, 7, 0.00,10.00,SummerDesignDay
8,13.572736920571789
10,67416611.50457002
709,31656186.23482242
2,1, 7,21, 0, 7,10.00,20.00,SummerDesignDay
8,13.627748229152554
10,68162802.56188853
709,29155250.409780135
2,1, 7,21, 0, 7,20.00,30.00,SummerDesignDay
8,13.682651961920304
10,68251856.72154437
709,55258901.46383034
2,1, 7,21, 0, 7,30.00,40.00,SummerDesignDay
8,13.737448093244995
10,68369319.65337108
709,28601549.25239483
2,1, 7,21, 0, 7,40.00,50.00,SummerDesignDay
8,13.792137011831216
10,68498064.50721213
709,38663371.309407938
2,1, 7,21, 0, 7,50.00,60.00,SummerDesignDay
8,13.846719282840333
10,68613002.75949432
709,44131510.09731147
2,1, 7,21, 0, 7, 0.00,60.00,SummerDesignDay
943,21.66084598267332
983,23.998218751197958
1023,21.132548371339543
1063,21.997851683942355
1103,23.84572947438018
1143,23.845909486695644
1183,22.414241796587488
1223,22.22643126515068
1263,23.501326998447654
1303,22.303422796853483
1343,24.192855589826825
1383,24.219859833091346
1423,23.983267941195988
1463,24.438733396279259
1503,23.997308810214617
1543,22.629553885661193
1583,24.01445207497368
1623,23.94979663163841
1663,23.902746223639097
1703,24.18170746307248
2,1, 7,21, 0, 8, 0.00,10.00,SummerDesignDay
8,13.978831900527043
10,75095242.92699312
709,56401544.301679458
2,1, 7,21, 0, 8,10.00,20.00,SummerDesignDay
8,14.110321014287419
10,76140389.51535325
709,56060506.55697943
2,1, 7,21, 0, 8,20.00,30.00,SummerDesignDay
8,14.241191509616986
10,76475177.20290737
709,34035540.407788928
2,1, 7,21, 0, 8,30.00,40.00,SummerDesignDay
8,14.371447531304272
10,76845227.34485668
709,49358911.90141936
2,1, 7,21, 0, 8,40.00,50.00,SummerDesignDay
8,14.501093766564925
10,77213031.93715032
709,55600799.825941409
2,1, 7,21, 0, 8,50.00,60.00,SummerDesignDay
8,14.630134792273804
10,77025344.27078942
709,55600960.069196868
2,1, 7,21, 0, 8, 0.00,60.00,SummerDesignDay
943,22.4955380062809
983,23.998150313444
1023,21.78619684675716
1063,22.46802029932471
1103,23.844892615722786
1143,23.845020868578194
1183,23.375505084467993
1223,23.243262493169984
1263,24.82933128009954
1303,23.279638909364296
1343,24.36593390631172
1383,24.80879444470612
1423,24.256181177713093
1463,24.559819097923684
1503,24.119049980435194
1543,23.53790023985538
1583,24.118560874413889
1623,24.10132433304889
1663,24.07266340185647
1703,24.431517643321585
2,1, 7,21, 0, 9, 0.00,10.00,SummerDesignDay
8,14.773641492809972
10,101913291.7528096
709,93164985.9896899
2,1, 7,21, 0, 9,10.00,20.00,SummerDesignDay
8,14.91640948124148
10,110093073.24363543
709,62746598.91995051
2,1, 7,21, 0, 9,20.00,30.00,SummerDesignDay
8,15.05843890714102
10,117952228.89175053
709,94014591.62643375
2,1, 7,21, 0, 9,30.00,40.00,SummerDesignDay
8,15.199735893563798
10,125569935.8175806
709,87564548.10902274
2,1, 7,21, 0, 9,40.00,50.00,SummerDesignDay
8,15.340306256439395
10,131782324.54336217
709,69091506.40308854
2,1, 7,21, 0, 9,50.00,60.00,SummerDesignDay
8,15.48015101768072
10,139429810.82025717
709,94012808.04350733
2,1, 7,21, 0, 9, 0.00,60.00,SummerDesignDay
943,23.615006135884206
983,23.99852108545379
1023,22.893810731491415
1063,23.70755527547954
1103,23.87851966176497
1143,23.87862369431032
1183,23.999489726703684
1223,23.80258510579688
1263,25.552919478078406
1303,23.81383216011562
1343,24.24306228346281
1383,24.818302591379504
1423,24.10146746921573
1463,24.46649439952047
1503,24.0262508398272
1543,24.17844940797522
1583,24.014512934564466
1623,24.03316874932578
1663,24.028733170079119
1703,24.30014884276825
2,1, 7,21, 0,10, 0.00,10.00,SummerDesignDay
8,15.60467292907716
10,261337483.21656723
709,97126186.97468069
2,1, 7,21, 0,10,10.00,20.00,SummerDesignDay
8,15.72862731650033
10,271842819.21435198
709,80192015.36142959
2,1, 7,21, 0,10,20.00,30.00,SummerDesignDay
8,15.852017409284228
10,277999404.18222209
709,82004030.52069995
2,1, 7,21, 0,10,30.00,40.00,SummerDesignDay
8,15.974848118364367
10,284482391.60067376
709,97346218.59359354
2,1, 7,21, 0,10,40.00,50.00,SummerDesignDay
8,16.097123145563505
10,290607931.18065938
709,97337364.61908283
2,1, 7,21, 0,10,50.00,60.00,SummerDesignDay
8,16.218846351168599
10,296761126.7933443
709,97330631.98524538
2,1, 7,21, 0,10, 0.00,60.00,SummerDesignDay
943,23.99946954032593
983,23.998159796989623
1023,23.935479012765325
1063,23.99843558031095
1103,23.85653089180087
1143,23.856824483464263
1183,23.999738003379549
1223,23.707439810851118
1263,25.392792850994398
1303,23.61029658948452
1343,23.864675723069408
1383,24.186506407418908
1423,23.45152284648198
1463,24.217864444433834
1503,23.770704873071833
1543,24.15920019291828
1583,23.763347551946614
1623,23.80272116442744
1663,23.81380985673194
1703,23.744929874423549
2,1, 7,21, 0,11, 0.00,10.00,SummerDesignDay
8,16.325793027093189
10,348049009.3103612
709,70416085.22158367
2,1, 7,21, 0,11,10.00,20.00,SummerDesignDay
8,16.432322158488288
10,353833180.83190509
709,86992503.67609376
2,1, 7,21, 0,11,20.00,30.00,SummerDesignDay
8,16.538424180249178
10,359381482.9744685
709,94327603.797235
2,1, 7,21, 0,11,30.00,40.00,SummerDesignDay
8,16.644108396469087
10,364822787.42290928
709,70067782.64227003
2,1, 7,21, 0,11,40.00,50.00,SummerDesignDay
8,16.749376736593655
10,370132663.5001871
709,87125382.03199813
2,1, 7,21, 0,11,50.00,60.00,SummerDesignDay
8,16.854232613237156
10,375340638.3559887
709,94327641.47361014
2,1, 7,21, 0,11, 0.00,60.00,SummerDesignDay
943,23.999194908835226
983,23.997871078564946
1023,23.99925864310687
1063,23.998117958629405
1103,23.84584918516586
1143,23.846523551752595
1183,23.99972645747739
1223,23.829403142378806
1263,24.899522483712457
1303,23.45809739384757
1343,23.586254148123577
1383,23.49202740422091
1423,22.940704189395779
1463,23.991667460065274
1503,23.565198452090319
1543,24.14079585168605
1583,23.566692905219385
1623,23.59776157800141
1663,23.63557846547071
1703,23.27873050051112
2,1, 7,21, 0,12, 0.00,10.00,SummerDesignDay
8,16.92390823520069
10,424138487.07703617
709,60449127.44811579
2,1, 7,21, 0,12,10.00,20.00,SummerDesignDay
8,16.99340178950456
10,428737465.1029906
709,90342204.7255946
2,1, 7,21, 0,12,20.00,30.00,SummerDesignDay
8,17.06272006743463
10,432758696.91929587
709,60172022.241238068
2,1, 7,21, 0,12,30.00,40.00,SummerDesignDay
8,17.131853229172639
10,436666404.5528982
709,72874578.32060485
2,1, 7,21, 0,12,40.00,50.00,SummerDesignDay
8,17.200807172194087
10,440335007.00387659
709,77650328.5666918
2,1, 7,21, 0,12,50.00,60.00,SummerDesignDay
8,17.269582116758607
10,443841653.07229778
709,60211285.35455501
2,1, 7,21, 0,12, 0.00,60.00,SummerDesignDay
943,23.999164493129446
983,23.9977214101537
1023,23.999064347241768
1063,23.997708087369906
1103,23.84612849722401
1143,23.84727078582675
1183,23.999739095372865
1223,23.981925566254316
1263,24.319997180726703
1303,23.337771012379436
1343,23.470560787555028
1383,22.917548802670927
1423,22.61597144778945
1463,23.870892936976146
1503,23.48130134951353
1543,24.10906336183439
1583,23.50536007882477
1623,23.500022654886164
1663,23.55463081303806
1703,22.959070495839474
2,1, 7,21, 0,13, 0.00,10.00,SummerDesignDay
8,17.32447360221357
10,445271824.06614026
709,89098450.13154409
2,1, 7,21, 0,13,10.00,20.00,SummerDesignDay
8,17.379251291230806
10,447552445.0592311
709,59258994.59025372
2,1, 7,21, 0,13,20.00,30.00,SummerDesignDay
8,17.433921312061729
10,450157919.42706367
709,59304826.548451598
2,1, 7,21, 0,13,30.00,40.00,SummerDesignDay
8,17.488473222557489
10,452668847.30812999
709,88964952.58741966
2,1, 7,21, 0,13,40.00,50.00,SummerDesignDay
8,17.542913447755134
10,455053809.002574
709,59257892.523031059
2,1, 7,21, 0,13,50.00,60.00,SummerDesignDay
8,17.59724609886134
10,457309215.038895
709,59303390.66625405
2,1, 7,21, 0,13, 0.00,60.00,SummerDesignDay
943,23.998840932832907
983,23.997568150649305
1023,23.99862337276603
1063,23.997598148673334
1103,23.846212510988769
1143,23.84785597421858
1183,23.999851972899234
1223,24.081102418174458
1263,24.067941122641803
1303,23.28098702678605
1343,23.445239277756117
1383,22.677310109822483
1423,22.468374393253126
1463,23.782674031233538
1503,23.439496413067677
1543,24.09201817483232
1583,23.495202802176693
1623,23.43548370423093
1663,23.498197803587826
1703,22.774732079139939
2,1, 7,21, 0,14, 0.00,10.00,SummerDesignDay
8,17.6311450462694
10,458235981.4926885
709,92542849.04669002
2,1, 7,21, 0,14,10.00,20.00,SummerDesignDay
8,17.665000449016245
10,460153118.9300137
709,73885996.78224312
2,1, 7,21, 0,14,20.00,30.00,SummerDesignDay
8,17.698812743128934
10,461374339.6859401
709,81016636.93024428
2,1, 7,21, 0,14,30.00,40.00,SummerDesignDay
8,17.732582050940107
10,462545564.71461948
709,92960252.18301104
2,1, 7,21, 0,14,40.00,50.00,SummerDesignDay
8,17.766307345121004
10,463615453.34418478
709,61937972.58105616
2,1, 7,21, 0,14,50.00,60.00,SummerDesignDay
8,17.79999023167558
10,464635740.27126309
709,92956073.9865064
2,1, 7,21, 0,14, 0.00,60.00,SummerDesignDay
943,23.998547110440258
983,23.997540369238164
1023,23.99827112950861
1063,23.99747446591692
1103,23.846194511068103
1143,23.848289671115024
1183,23.99985437384247
1223,24.070807903056495
1263,23.99502019680607
1303,23.33913538608086
1343,23.4902371329603
1383,22.62110379762197
1423,22.477130258136556
1463,23.714185659448949
1503,23.41871969237972
1543,24.07287380265474
1583,23.511070311807815
1623,23.388119537377006
1663,23.459417883457794
1703,22.725215022207889
2,1, 7,21, 0,15, 0.00,10.00,SummerDesignDay
8,17.79999023167558
10,462964556.6153229
709,60302894.94543726
2,1, 7,21, 0,15,10.00,20.00,SummerDesignDay
8,17.79999023167558
10,462062254.26386418
709,90221660.42748325
2,1, 7,21, 0,15,20.00,30.00,SummerDesignDay
8,17.79999023167558
10,461576567.36581328
709,60100887.723604
2,1, 7,21, 0,15,30.00,40.00,SummerDesignDay
8,17.79999023167558
10,460992992.23387047
709,77190564.39191708
2,1, 7,21, 0,15,40.00,50.00,SummerDesignDay
8,17.79999023167558
10,460289774.95856967
709,73137686.89110275
2,1, 7,21, 0,15,50.00,60.00,SummerDesignDay
8,17.79999023167558
10,459504111.8282998
709,60137163.43451933
2,1, 7,21, 0,15, 0.00,60.00,SummerDesignDay
943,23.99877772697648
983,23.997559833440165
1023,23.998554065412426
1063,23.99742428598647
1103,23.846233784852946
1143,23.848665775733936
1183,23.99988986631676
1223,23.922804724301007
1263,23.96224210175774
1303,23.759201972267844
1343,23.61905486039696
1383,22.69518749047224
1423,22.827377986246395
1463,23.706783485901594
1503,23.451992535497408
1543,24.05168059738456
1583,23.577507604104768
1623,23.39339835879068
1663,23.476482210851814
1703,23.012201272993605
2,1, 7,21, 0,16, 0.00,10.00,SummerDesignDay
8,17.759562446305357
10,455404229.4234192
709,63258234.69791926
2,1, 7,21, 0,16,10.00,20.00,SummerDesignDay
8,17.71907809634183
10,451852621.8659561
709,63102012.77939063
2,1, 7,21, 0,16,20.00,30.00,SummerDesignDay
8,17.67853788661001
10,448829513.5427971
709,63077743.9900129
2,1, 7,21, 0,16,30.00,40.00,SummerDesignDay
8,17.63791796367351
10,445576258.90889546
709,63076286.24277851
2,1, 7,21, 0,16,40.00,50.00,SummerDesignDay
8,17.59724609886134
10,442126658.8733336
709,60471790.48552366
2,1, 7,21, 0,16,50.00,60.00,SummerDesignDay
8,17.55650676726033
10,438446068.33077916
709,56813513.13033185
2,1, 7,21, 0,16, 0.00,60.00,SummerDesignDay
943,23.999230403077929
983,23.99739157257748
1023,23.999110276745854
1063,23.9973887369493
1103,23.846395667291604
1143,23.849125506386089
1183,23.9999100457046
1223,23.689719817955724
1263,23.929520855120527
1303,24.402480398601538
1343,23.849859605819686
1383,22.900510315348883
1423,23.474828995652364
1463,23.805725278288276
1503,23.57173663937291
1543,24.027038390714947
1583,23.71769800062728
1623,23.484040123533466
1663,23.580613967975365
1703,23.592244751338659
2,1, 7,21, 0,17, 0.00,10.00,SummerDesignDay
8,17.50209486331892
10,424817939.6242233
709,39415386.87002706
2,1, 7,21, 0,17,10.00,20.00,SummerDesignDay
8,17.447570789624618
10,419878221.0419287
709,43671708.76109361
2,1, 7,21, 0,17,20.00,30.00,SummerDesignDay
8,17.392929544208135
10,415114035.51401838
709,55325624.533555839
2,1, 7,21, 0,17,30.00,40.00,SummerDesignDay
8,17.33818013976614
10,410637537.9614702
709,55328334.49812767
2,1, 7,21, 0,17,40.00,50.00,SummerDesignDay
8,17.283317298559309
10,406490661.51065298
709,55332407.51489697
2,1, 7,21, 0,17,50.00,60.00,SummerDesignDay
8,17.22833552437677
10,402317358.4142632
709,55336217.461813319
2,1, 7,21, 0,17, 0.00,60.00,SummerDesignDay
943,23.999569409461654
983,23.997370765116967
1023,23.999494571268074
1063,23.998023874924159
1103,23.84647638896988
1143,23.849422735388417
1183,23.99982477841834
1223,23.539270502365175
1263,23.903670895396677
1303,24.866849071266914
1343,24.194721407654315
1383,23.244741617287585
1423,24.165623285281276
1463,24.048978356007685
1503,23.811058534396055
1543,23.998701163910554
1583,23.95970263276122
1623,23.694071638930266
1663,23.803598480572075
1703,24.19385329004237
2,1, 7,21, 0,18, 0.00,10.00,SummerDesignDay
8,17.159453019160176
10,389196020.34198746
709,26992261.105135386
2,1, 7,21, 0,18,10.00,20.00,SummerDesignDay
8,17.090391773337136
10,384225224.9906455
709,53864232.82364269
2,1, 7,21, 0,18,20.00,30.00,SummerDesignDay
8,17.021151077964786
10,379521470.5584599
709,27618435.45297515
2,1, 7,21, 0,18,30.00,40.00,SummerDesignDay
8,16.951729380464653
10,374853552.3481617
709,53182433.9019835
2,1, 7,21, 0,18,40.00,50.00,SummerDesignDay
8,16.882126503829249
10,370266045.84218326
709,53883318.872746478
2,1, 7,21, 0,18,50.00,60.00,SummerDesignDay
8,16.812341807494034
10,365762914.9205884
709,26922779.640517188
2,1, 7,21, 0,18, 0.00,60.00,SummerDesignDay
943,23.99949742613994
983,23.997369528670679
1023,23.999437822552847
1063,23.998862589587089
1103,23.846338903296485
1143,23.849388066445788
1183,23.999843180270977
1223,23.549057331801494
1263,23.88793470306331
1303,25.129604301612337
1343,24.60396644834006
1383,23.676056331462008
1423,24.834803818015659
1463,24.401804364894465
1503,24.138331596924905
1543,23.959125377596604
1583,24.278496840648896
1623,23.99696196252076
1663,24.117851287741446
1703,24.76567340094591
2,1, 7,21, 0,19, 0.00,10.00,SummerDesignDay
8,16.707321072823203
10,361791819.77446666
709,55147881.56456148
2,1, 7,21, 0,19,10.00,20.00,SummerDesignDay
8,16.601881826644556
10,356615952.40615859
709,55298249.901094999
2,1, 7,21, 0,19,20.00,30.00,SummerDesignDay
8,16.496030555252849
10,351279359.6112039
709,55303010.171921487
2,1, 7,21, 0,19,30.00,40.00,SummerDesignDay
8,16.389760181474104
10,346068980.3315039
709,41608360.23772361
2,1, 7,21, 0,19,40.00,50.00,SummerDesignDay
8,16.283067654262039
10,340982127.69154748
709,41333118.325896468
2,1, 7,21, 0,19,50.00,60.00,SummerDesignDay
8,16.17595057957811
10,336001825.28714677
709,55292824.28908937
2,1, 7,21, 0,19, 0.00,60.00,SummerDesignDay
943,23.99921313897583
983,23.997360153518387
1023,23.999128759652526
1063,23.999257113514735
1103,23.846342816981346
1143,23.84922173761062
1183,23.999852734668534
1223,23.613733964117136
1263,23.864407734096589
1303,25.15921841823196
1343,25.008105746223906
1383,24.09827854827986
1423,25.361521202547676
1463,24.803883406866274
1503,24.50199184725228
1543,23.958948253170179
1583,24.631376772133448
1623,24.343759674655457
1663,24.472220949553848
1703,25.212785838754685
2,1, 7,21, 0,20, 0.00,10.00,SummerDesignDay
8,16.097123145563505
10,357166029.91648188
709,62325343.00114565
2,1, 7,21, 0,20,10.00,20.00,SummerDesignDay
8,16.018070242471564
10,354905202.5578353
709,85486124.40743609
2,1, 7,21, 0,20,20.00,30.00,SummerDesignDay
8,15.938779752340516
10,351567525.36753818
709,59267136.56850698
2,1, 7,21, 0,20,30.00,40.00,SummerDesignDay
8,15.85926152575189
10,348164934.53423568
709,61521260.3136098
2,1, 7,21, 0,20,40.00,50.00,SummerDesignDay
8,15.779503718563929
10,344685197.8036118
709,86743986.00624277
2,1, 7,21, 0,20,50.00,60.00,SummerDesignDay
8,15.699515709672767
10,341095377.9752561
709,59266123.40699013
2,1, 7,21, 0,20, 0.00,60.00,SummerDesignDay
943,23.99875272182138
983,23.99743581521525
1023,23.998637540385034
1063,23.99891327246074
1103,23.8466516501426
1143,23.849221136030577
1183,23.999864585601036
1223,23.642377992601998
1263,23.82505389971414
1303,24.886076144732298
1343,25.322139420066198
1383,24.40222594335212
1423,25.593331726559627
1463,25.1631264833498
1503,24.824125175375838
1543,24.077177404056447
1583,24.94259532405843
1623,24.655632148853504
1663,24.78364123044601
1703,25.39794098464361
2,1, 7,21, 0,21, 0.00,10.00,SummerDesignDay
8,15.63389147320404
10,344956715.78964427
709,97754903.89026281
2,1, 7,21, 0,21,10.00,20.00,SummerDesignDay
8,15.56810827419793
10,342739730.75046798
709,98833810.33158027
2,1, 7,21, 0,21,20.00,30.00,SummerDesignDay
8,15.502170882753524
10,339519693.4836803
709,98826255.92957668
2,1, 7,21, 0,21,30.00,40.00,SummerDesignDay
8,15.436068032613852
10,336245913.0662117
709,88167178.79969836
2,1, 7,21, 0,21,40.00,50.00,SummerDesignDay
8,15.369804371206009
10,332982311.1484186
709,85551424.1837578
2,1, 7,21, 0,21,50.00,60.00,SummerDesignDay
8,15.303384603594449
10,329317525.3217496
709,89830279.813465
2,1, 7,21, 0,21, 0.00,60.00,SummerDesignDay
943,23.99840144815229
983,23.99756747504186
1023,23.998268481832495
1063,23.998884962160614
1103,23.846435691244513
1143,23.84868607011605
1183,23.999894832107818
1223,23.643852099126904
1263,23.785519299256067
1303,24.34564882867063
1343,25.54776813014564
1383,24.609364065986488
1423,25.54554099001432
1463,25.435748374155137
1503,25.07628389977567
1543,24.072120378279548
1583,25.180924903420629
1623,24.903797706249077
1663,25.02131137518825