Program Version,EnergyPlus, Version 8.9.0-eba93e8e1b, YMD=2019.03.20 17:57
1,5,Environment Title[],Latitude[deg],Longitude[deg],Time Zone[],Elevation[m]
2,8,Day of Simulation[],Month[],Day of Month[],DST Indicator[1=yes 0=no],Hour[],StartMinute[],EndMinute[],DayType
3,5,Cumulative Day of Simulation[],Month[],Day of Month[],DST Indicator[1=yes 0=no],DayType  ! When Daily Report Variables Requested
4,2,Cumulative Days of Simulation[],Month[]  ! When Monthly Report Variables Requested
5,1,Cumulative Days of Simulation[] ! When Run Period Report Variables Requested
6,1,Calendar Year of Simulation[] ! When Annual Report Variables Requested
7,9,Environment,Site Outdoor Air Drybulb Temperature [C] !Monthly [Value,Min,Day,Hour,Minute,Max,Day,Hour,Minute]
8,1,Environment,Site Outdoor Air Wetbulb Temperature [C] !TimeStep
1073,1,ALL_ST=GYM - FITNESS_FL=STORY 4_SCH=B,Zone Air Temperature [C] !Hourly
1074,7,ALL_ST=GYM - FITNESS_FL=STORY 4_SCH=B,Zone Air Relative Humidity [%] !Daily [Value,Min,Hour,Minute,Max,Hour,Minute]
1113,1,ALL_ST=GYM - PLAY_FL=STORY 3_SCH=B,Zone Air Temperature [C] !Hourly
1114,7,ALL_ST=GYM - PLAY_FL=STORY 3_SCH=B,Zone Air Relative Humidity [%] !Daily [Value,Min,Hour,Minute,Max,Hour,Minute]
1153,1,ALL_ST=HOSPITAL - EMERGENCY_FL=STORY 4_SCH=H,Zone Air Temperature [C] !Hourly
1154,7,ALL_ST=HOSPITAL - EMERGENCY_FL=STORY 4_SCH=H,Zone Air Relative Humidity [%] !Daily [Value,Min,Hour,Minute,Max,Hour,Minute]
1193,1,ALL_ST=HOSPITAL - EXAM_FL=STORY 3_SCH=C,Zone Air Temperature [C] !Hourly
1194,7,ALL_ST=HOSPITAL - EXAM_FL=STORY 3_SCH=C,Zone Air Relative Humidity [%] !Daily [Value,Min,Hour,Minute,Max,Hour,Minute]
1233,1,ALL_ST=HOSPITAL - LAUNDRY/WASHING_FL=STORY 4_SCH=C,Zone Air Temperature [C] !Hourly
1234,7,ALL_ST=HOSPITAL - LAUNDRY/WASHING_FL=STORY 4_SCH=C,Zone Air Relative Humidity [%] !Daily [Value,Min,Hour,Minute,Max,Hour,Minute]
1273,1,ALL_ST=HOSPITAL - LOUNGE/RECREATION_FL=STORY 1_SCH=B,Zone Air Temperature [C] !Hourly
1274,7,ALL_ST=HOSPITAL - LOUNGE/RECREATION_FL=STORY 1_SCH=B,Zone Air Relative Humidity [%] !Daily [Value,Min,Hour,Minute,Max,Hour,Minute]
1313,1,ALL_ST=HOSPITAL - MEDICAL SUPPLY - OCCSENS_FL=STORY 3_SCH=H,Zone Air Temperature [C] !Hourly
1314,7,ALL_ST=HOSPITAL - MEDICAL SUPPLY - OCCSENS_FL=STORY 3_SCH=H,Zone Air Relative Humidity [%] !Daily [Value,Min,Hour,Minute,Max,Hour,Minute]
1353,1,ALL_ST=HOSPITAL - MEDICAL SUPPLY_FL=STORY 1_SCH=H,Zone Air Temperature [C] !Hourly
1354,7,ALL_ST=HOSPITAL - MEDICAL SUPPLY_FL=STORY 1_SCH=H,Zone Air Relative Humidity [%] !Daily [Value,Min,Hour,Minute,Max,Hour,Minute]
1393,1,ALL_ST=HOSPITAL - NURSERY_FL=STORY 1_SCH=H,Zone Air Temperature [C] !Hourly
1394,7,ALL_ST=HOSPITAL - NURSERY_FL=STORY 1_SCH=H,Zone Air Relative Humidity [%] !Daily [Value,Min,Hour,Minute,Max,Hour,Minute]
1433,1,ALL_ST=HOSPITAL - NURSES STATION_FL=STORY 3_SCH=H,Zone Air Temperature [C] !Hourly
1434,7,ALL_ST=HOSPITAL - NURSES STATION_FL=STORY 3_SCH=H,Zone Air Relative Humidity [%] !Daily [Value,Min,Hour,Minute,Max,Hour,Minute]
1473,1,ALL_ST=HOSPITAL - OPERATING ROOM_FL=STORY 1_SCH=H,Zone Air Temperature [C] !Hourly
1474,7,ALL_ST=HOSPITAL - OPERATING ROOM_FL=STORY 1_SCH=H,Zone Air Relative Humidity [%] !Daily [Value,Min,Hour,Minute,Max,Hour,Minute]
1513,1,ALL_ST=HOSPITAL - PATIENT ROOM_FL=STORY 1_SCH=H,Zone Air Temperature [C] !Hourly
1514,7,ALL_ST=HOSPITAL - PATIENT ROOM_FL=STORY 1_SCH=H,Zone Air Relative Humidity [%] !Daily [Value,Min,Hour,Minute,Max,Hour,Minute]
1553,1,ALL_ST=HOSPITAL - PHARMACY_FL=STORY 2_SCH=C,Zone Air Temperature [C] !Hourly
1554,7,ALL_ST=HOSPITAL - PHARMACY_FL=STORY 2_SCH=C,Zone Air Relative Humidity [%] !Daily [Value,Min,Hour,Minute,Max,Hour,Minute]
1593,1,ALL_ST=HOSPITAL - PHYSICAL THERAPY_FL=STORY 4_SCH=C,Zone Air Temperature [C] !Hourly
1594,7,ALL_ST=HOSPITAL - PHYSICAL THERAPY_FL=STORY 4_SCH=C,Zone Air Relative Humidity [%] !Daily [Value,Min,Hour,Minute,Max,Hour,Minute]
1633,1,ALL_ST=HOSPITAL - RADIOLOGY/IMAGING_FL=STORY 2_SCH=H,Zone Air Temperature [C] !Hourly
1634,7,ALL_ST=HOSPITAL - RADIOLOGY/IMAGING_FL=STORY 2_SCH=H,Zone Air Relative Humidity [%] !Daily [Value,Min,Hour,Minute,Max,Hour,Minute]
1673,1,ALL_ST=HOSPITAL - RECOVERY_FL=STORY 4_SCH=H,Zone Air Temperature [C] !Hourly
1674,7,ALL_ST=HOSPITAL - RECOVERY_FL=STORY 4_SCH=H,Zone Air Relative Humidity [%] !Daily [Value,Min,Hour,Minute,Max,Hour,Minute]
1713,1,WILD_ST=HOSPITAL CORR. < 2.4M-SCH-A_FL=STORY 3_SCH=H,Zone Air Temperature [C] !Hourly
1714,7,WILD_ST=HOSPITAL CORR. < 2.4M-SCH-A_FL=STORY 3_SCH=H,Zone Air Relative Humidity [%] !Daily [Value,Min,Hour,Minute,Max,Hour,Minute]
1753,1,WILD_ST=HOSPITAL CORR. < 2.4M-SCH-B_FL=STORY 2_SCH=H,Zone Air Temperature [C] !Hourly
1754,7,WILD_ST=HOSPITAL CORR. < 2.4M-SCH-B_FL=STORY 2_SCH=H,Zone Air Relative Humidity [%] !Daily [Value,Min,Hour,Minute,Max,Hour,Minute]
1793,1,WILD_ST=HOSPITAL CORR. < 2.4M-SCH-C_FL=STORY 2_SCH=H,Zone Air Temperature [C] !Hourly
1794,7,WILD_ST=HOSPITAL CORR. < 2.4M-SCH-C_FL=STORY 2_SCH=H,Zone Air Relative Humidity [%] !Daily [Value,Min,Hour,Minute,Max,Hour,Minute]
1833,1,WILD_ST=HOSPITAL CORR. < 2.4M-SCH-D_FL=STORY 2_SCH=H,Zone Air Temperature [C] !Hourly
1834,7,WILD_ST=HOSPITAL CORR. < 2.4M-SCH-D_FL=STORY 2_SCH=H,Zone Air Relative Humidity [%] !Daily [Value,Min,Hour,Minute,Max,Hour,Minute]
10,1,Electricity:Facility [J] !TimeStep
839,1,Gas:Facility [J] !TimeStep
End of Data Dictionary
1,FORT MCMURRAY AP ANN CLG .4% CONDNS DB=>MWB,  56.65,-111.22,  -7.00, 369.10
2,1, 7,21, 0, 1, 0.00,10.00,SummerDesignDay
8,14.218136923962174
10,383170953.5082319
839,111429816.68637447
2,1, 7,21, 0, 1,10.00,20.00,SummerDesignDay
8,14.171982153293495
10,381289671.32711187
839,108655795.29711239
2,1, 7,21, 0, 1,20.00,30.00,SummerDesignDay
8,14.125744780286427
10,379886495.65773209
839,108621200.44459203
2,1, 7,21, 0, 1,30.00,40.00,SummerDesignDay
8,14.079436086331978
10,378430537.1961269
839,108585337.49280285
2,1, 7,21, 0, 1,40.00,50.00,SummerDesignDay
8,14.033050387896898
10,376966921.1680977
839,108549039.82560095
2,1, 7,21, 0, 1,50.00,60.00,SummerDesignDay
8,13.986581233564835
10,375489785.42053779
839,108512345.429855
2,1, 7,21, 0, 1, 0.00,60.00,SummerDesignDay
1073,23.475274561715425
1113,23.997573774686999
1153,23.998381921134678
1193,24.374529093472988
1233,22.41320184453302
1273,23.99816434107808
1313,23.99904713852324
1353,23.999242243424147
1393,23.99778144383093
1433,23.99891962626343
1473,23.907358091699299
1513,23.997872459979548
1553,22.94686265044759
1593,22.158412603824034
1633,23.998249436904375
1673,23.193007807393447
1713,23.999873471583429
1753,24.165056483757913
1793,24.11502690910093
1833,25.16038115660061
2,1, 7,21, 0, 2, 0.00,10.00,SummerDesignDay
8,13.95555882260429
10,351168703.81131139
839,99126356.82108996
2,1, 7,21, 0, 2,10.00,20.00,SummerDesignDay
8,13.924507755336454
10,350123757.33592817
839,100018278.5836076
2,1, 7,21, 0, 2,20.00,30.00,SummerDesignDay
8,13.893416042989206
10,349058461.7347861
839,116762827.07944915
2,1, 7,21, 0, 2,30.00,40.00,SummerDesignDay
8,13.862289589689029
10,347971642.7914976
839,116700199.50550445
2,1, 7,21, 0, 2,40.00,50.00,SummerDesignDay
8,13.831134407608739
10,346785430.4433998
839,116708191.80747639
2,1, 7,21, 0, 2,50.00,60.00,SummerDesignDay
8,13.799938415548118
10,345654696.3466456
839,116716388.61235638
2,1, 7,21, 0, 2, 0.00,60.00,SummerDesignDay
1073,22.38128852421825
1113,25.008876119001604
1153,23.998809444246665
1193,24.064164079685967
1233,21.911459382806375
1273,24.087785904798399
1313,23.999302929915549
1353,23.999436348822134
1393,23.998310353242755
1433,23.999217158776778
1473,23.570768021817114
1513,23.998377273980244
1553,22.63610858937929
1593,21.668496218707678
1633,23.998670215721466
1673,22.70728294503478
1713,23.999919970790559
1753,24.223664741706484
1793,24.18872959919842
1833,25.249479137438823
2,1, 7,21, 0, 3, 0.00,10.00,SummerDesignDay
8,13.776521671948676
10,326113088.2215018
839,96420997.44169727
2,1, 7,21, 0, 3,10.00,20.00,SummerDesignDay
8,13.753085235778466
10,325116085.32655128
839,84341261.4734151
2,1, 7,21, 0, 3,20.00,30.00,SummerDesignDay
8,13.729636002354969
10,324194711.9762158
839,29194002.265257248
2,1, 7,21, 0, 3,30.00,40.00,SummerDesignDay
8,13.706147375533054
10,323149557.08344849
839,75709996.98493505
2,1, 7,21, 0, 3,40.00,50.00,SummerDesignDay
8,13.682651961920304
10,322200667.3364502
839,94464578.76110265
2,1, 7,21, 0, 3,50.00,60.00,SummerDesignDay
8,13.659136670643687
10,321204521.7578635
839,94595458.63889931
2,1, 7,21, 0, 3, 0.00,60.00,SummerDesignDay
1073,21.149012780868565
1113,24.596586810698186
1153,23.99863673353887
1193,23.810081129047217
1233,21.50677451887944
1273,23.533910006990245
1313,23.99921128524448
1353,23.999338635228026
1393,23.998008159077359
1433,23.999113023836008
1473,23.30640212144394
1513,23.998076611856758
1553,22.391244884317389
1593,21.273233896689413
1633,23.99844329363736
1673,22.327164999868704
1713,23.999917505011564
1753,24.276774440057264
1793,24.26275090519415
1833,25.33504292683266
2,1, 7,21, 0, 4, 0.00,10.00,SummerDesignDay
8,13.63560137410855
10,320202569.58278289
839,74280817.41618759
2,1, 7,21, 0, 4,10.00,20.00,SummerDesignDay
8,13.612040802606578
10,319198236.67834237
839,28788763.3627503
2,1, 7,21, 0, 4,20.00,30.00,SummerDesignDay
8,13.58846620506876
10,318208934.39515939
839,86032781.93064502
2,1, 7,21, 0, 4,30.00,40.00,SummerDesignDay
8,13.56487178447336
10,317217194.49297156
839,94482138.13646628
2,1, 7,21, 0, 4,40.00,50.00,SummerDesignDay
8,13.541257354069103
10,316206146.7872228
839,94616822.53354714
2,1, 7,21, 0, 4,50.00,60.00,SummerDesignDay
8,13.517617463812285
10,315196141.29342016
839,64171536.337989609
2,1, 7,21, 0, 4, 0.00,60.00,SummerDesignDay
1073,20.444629760965524
1113,24.131900597800767
1153,23.998619355330864
1193,23.56459474719937
1233,21.13981434245187
1273,23.108818436145829
1313,23.999180360437767
1353,23.99929260943154
1393,23.997842816859707
1433,23.99906769894552
1473,23.06796477626224
1513,23.997910593904597
1553,22.163290193196436
1593,20.915041989324565
1633,23.998315708248457
1673,21.980361447354757
1713,23.99991610506375
1753,24.322127603460875
1793,24.335287974701289
1833,25.42303854976163
2,1, 7,21, 0, 5, 0.00,10.00,SummerDesignDay
8,13.50185415824011
10,314403908.2236589
839,30481054.644714327
2,1, 7,21, 0, 5,10.00,20.00,SummerDesignDay
8,13.486076034032447
10,314013637.8013793
839,94414384.21427286
2,1, 7,21, 0, 5,20.00,30.00,SummerDesignDay
8,13.470289340350983
10,313672535.65813228
839,94502084.54329956
2,1, 7,21, 0, 5,30.00,40.00,SummerDesignDay
8,13.454493322631063
10,313315996.1287435
839,94638318.8748467
2,1, 7,21, 0, 5,40.00,50.00,SummerDesignDay
8,13.438688835118548
10,312950729.8816117
839,54017135.09148599
2,1, 7,21, 0, 5,50.00,60.00,SummerDesignDay
8,13.422888173889437
10,312543551.81477478
839,40588811.711539339
2,1, 7,21, 0, 5, 0.00,60.00,SummerDesignDay
1073,20.27970402345559
1113,24.077668547329279
1153,23.9985384839774
1193,23.4046372759266
1233,20.8839114362415
1273,22.915580895122877
1313,23.999204134036068
1353,23.99333957225385
1393,23.997843933963808
1433,23.999093185131497
1473,22.867037958007534
1513,23.997903135893226
1553,22.02137901667599
1593,20.66858654050455
1633,23.998320322753455
1673,21.88438734893612
1713,23.999921855576429
1753,24.35862517139586
1793,24.48878633783434
1833,25.498428543699818
2,1, 7,21, 0, 6, 0.00,10.00,SummerDesignDay
8,13.438688835118548
10,312934439.226987
839,94421925.44160046
2,1, 7,21, 0, 6,10.00,20.00,SummerDesignDay
8,13.454493322631063
10,313288779.33069327
839,94522944.77051015
2,1, 7,21, 0, 6,20.00,30.00,SummerDesignDay
8,13.470289340350983
10,313613723.88272407
839,94659857.21763931
2,1, 7,21, 0, 6,30.00,40.00,SummerDesignDay
8,13.486076034032447
10,313926859.3814519
839,43809646.612941499
2,1, 7,21, 0, 6,40.00,50.00,SummerDesignDay
8,13.50185415824011
10,314249358.3922468
839,50744407.53285509
2,1, 7,21, 0, 6,50.00,60.00,SummerDesignDay
8,13.517617463812285
10,314603439.14280828
839,94431625.13962206
2,1, 7,21, 0, 6, 0.00,60.00,SummerDesignDay
1073,20.37413190249798
1113,24.440516539983123
1153,23.99829305182794
1193,23.38875023948181
1233,20.930446562146416
1273,22.811381260707763
1313,23.999161973721738
1353,23.971111875298165
1393,23.997787332545206
1433,23.999077072202664
1473,22.82806904987089
1513,23.997847612336789
1553,22.028095395507067
1593,20.732816469745065
1633,23.998267908653049
1673,22.485825860805848
1713,23.99991534116999
1753,24.391442726677324
1793,24.921521534716125
1833,25.559940584057278
2,1, 7,21, 0, 7, 0.00,10.00,SummerDesignDay
8,13.572736920571789
10,316092633.83206316
839,94543901.8960542
2,1, 7,21, 0, 7,10.00,20.00,SummerDesignDay
8,13.627748229152554
10,317639758.5335501
839,94681349.96746385
2,1, 7,21, 0, 7,20.00,30.00,SummerDesignDay
8,13.682651961920304
10,319161643.7544988
839,33559967.64062963
2,1, 7,21, 0, 7,30.00,40.00,SummerDesignDay
8,13.737448093244995
10,320738436.09973028
839,60942981.6512112
2,1, 7,21, 0, 7,40.00,50.00,SummerDesignDay
8,13.792137011831216
10,322344201.6705004
839,94443509.14317175
2,1, 7,21, 0, 7,50.00,60.00,SummerDesignDay
8,13.846719282840333
10,323959642.30454406
839,94564956.74282278
2,1, 7,21, 0, 7, 0.00,60.00,SummerDesignDay
1073,20.68425311940239
1113,24.87862794471295
1153,23.99817877835167
1193,23.4256615302474
1233,21.37633556548752
1273,22.869889160396754
1313,23.999059011299438
1353,23.99900792245983
1393,23.99766535951653
1433,23.999021598089099
1473,23.097981635150675
1513,23.997741941975943
1553,22.132696007534987
1593,21.211022564121703
1633,23.99818108292813
1673,23.454441258086534
1713,23.999899229745656
1753,24.415130024728695
1793,25.340085388165038
1833,25.605305724607815
2,1, 7,21, 0, 8, 0.00,10.00,SummerDesignDay
8,13.978831900527043
10,329910841.05993428
839,88763332.60609602
2,1, 7,21, 0, 8,10.00,20.00,SummerDesignDay
8,14.110321014287419
10,334254448.0272181
839,29189923.35555407
2,1, 7,21, 0, 8,20.00,30.00,SummerDesignDay
8,14.241191509616986
10,339475742.40975198
839,71201978.35827212
2,1, 7,21, 0, 8,30.00,40.00,SummerDesignDay
8,14.371447531304272
10,344442429.3167403
839,94457653.4831451
2,1, 7,21, 0, 8,40.00,50.00,SummerDesignDay
8,14.501093766564925
10,350246512.2789903
839,94586152.7378779
2,1, 7,21, 0, 8,50.00,60.00,SummerDesignDay
8,14.630134792273804
10,355453818.93900629
839,78692215.1331409
2,1, 7,21, 0, 8, 0.00,60.00,SummerDesignDay
1073,21.33214869570396
1113,25.252446752841054
1153,23.997834643231035
1193,23.767855036374234
1233,22.439528520140937
1273,23.196613682433779
1313,23.99893964443028
1353,23.999004412890796
1393,23.997561033544434
1433,23.99893714492188
1473,23.78627158600969
1513,23.99764517432932
1553,22.62138939702501
1593,22.32222396104019
1633,23.998091991776886
1673,23.99470817831283
1713,23.99987571073055
1753,24.42598982801606
1793,25.637385426698257
1833,25.623094110443814
2,1, 7,21, 0, 9, 0.00,10.00,SummerDesignDay
8,14.773641492809972
10,415872246.55205896
839,30594062.60963386
2,1, 7,21, 0, 9,10.00,20.00,SummerDesignDay
8,14.91640948124148
10,425468302.41846349
839,81454987.7413746
2,1, 7,21, 0, 9,20.00,30.00,SummerDesignDay
8,15.05843890714102
10,432505514.23580208
839,95001196.37443711
2,1, 7,21, 0, 9,30.00,40.00,SummerDesignDay
8,15.199735893563798
10,439591034.61157438
839,95098663.98086864
2,1, 7,21, 0, 9,40.00,50.00,SummerDesignDay
8,15.340306256439395
10,448284408.95107188
839,77342229.72552006
2,1, 7,21, 0, 9,50.00,60.00,SummerDesignDay
8,15.48015101768072
10,456019630.6885826
839,31677969.022050769
2,1, 7,21, 0, 9, 0.00,60.00,SummerDesignDay
1073,22.231819140007955
1113,24.061888474300646
1153,23.997964588235097
1193,23.99966741801582
1233,23.940993748259179
1273,23.755163113735859
1313,23.99913810472201
1353,23.99918716560768
1393,23.998099858994647
1433,23.99908865106515
1473,23.997933296360725
1513,23.998166427449875
1553,23.70419203478483
1593,23.890840816779286
1633,23.998478627311923
1673,23.997673892104549
1713,23.999884791237617
1753,24.415072988311406
1793,25.771396571538319
1833,25.606427342012876
2,1, 7,21, 0,10, 0.00,10.00,SummerDesignDay
8,15.60467292907716
10,532406239.24998977
839,118720136.11705403
2,1, 7,21, 0,10,10.00,20.00,SummerDesignDay
8,15.72862731650033
10,541450853.8101792
839,120424019.55900319
2,1, 7,21, 0,10,20.00,30.00,SummerDesignDay
8,15.852017409284228
10,548998790.1807251
839,132793014.4726545
2,1, 7,21, 0,10,30.00,40.00,SummerDesignDay
8,15.974848118364367
10,556898270.5613698
839,133209441.4950151
2,1, 7,21, 0,10,40.00,50.00,SummerDesignDay
8,16.097123145563505
10,562471196.4745365
839,133221343.08483476
2,1, 7,21, 0,10,50.00,60.00,SummerDesignDay
8,16.218846351168599
10,569087631.3403673
839,133223513.84391941
2,1, 7,21, 0,10, 0.00,60.00,SummerDesignDay
1073,23.760585851976918
1113,23.999207690622375
1153,23.99798304467335
1193,23.999598675502516
1233,23.99955423274984
1273,23.999685886311153
1313,23.999303942999604
1353,23.99935293017981
1393,23.998339093795037
1433,23.99910256071955
1473,23.998124916209748
1513,23.998415668219509
1553,23.99979088807233
1593,23.999587452668057
1633,23.99860999748161
1673,23.99792316980511
1713,23.999895542566177
1753,24.368843433918746
1793,25.739669987675155
1833,25.553673463342276
2,1, 7,21, 0,11, 0.00,10.00,SummerDesignDay
8,16.325793027093189
10,588575217.1922058
839,135037863.48697935
2,1, 7,21, 0,11,10.00,20.00,SummerDesignDay
8,16.432322158488288
10,594364975.0865961
839,135243613.21605457
2,1, 7,21, 0,11,20.00,30.00,SummerDesignDay
8,16.538424180249178
10,599803053.8218083
839,135244863.56092
2,1, 7,21, 0,11,30.00,40.00,SummerDesignDay
8,16.644108396469087
10,605077183.6835647
839,135246085.47103632
2,1, 7,21, 0,11,40.00,50.00,SummerDesignDay
8,16.749376736593655
10,610238249.0732908
839,135247280.89181198
2,1, 7,21, 0,11,50.00,60.00,SummerDesignDay
8,16.854232613237156
10,615314398.2875583
839,135248448.9848593
2,1, 7,21, 0,11, 0.00,60.00,SummerDesignDay
1073,23.99789828515892
1113,23.997923831243694
1153,23.99736853714241
1193,23.999513634366296
1233,23.99947915400522
1273,23.999252737863988
1313,23.999220982054724
1353,23.999295881901785
1393,23.998013539104453
1433,23.998809052787395
1473,23.997640494520053
1513,23.998110886858524
1553,23.999731885885397
1593,23.999463264103328
1633,23.998233341844757
1673,23.997542425034966
1713,23.99988814771994
1753,24.300619951428769
1793,25.453988774771898
1833,25.47159351882016
2,1, 7,21, 0,12, 0.00,10.00,SummerDesignDay
8,16.92390823520069
10,637479350.8872964
839,104037363.79010494
2,1, 7,21, 0,12,10.00,20.00,SummerDesignDay
8,16.99340178950456
10,639587211.6351103
839,97360487.10360033
2,1, 7,21, 0,12,20.00,30.00,SummerDesignDay
8,17.06272006743463
10,643447634.0754668
839,97294613.43065675
2,1, 7,21, 0,12,30.00,40.00,SummerDesignDay
8,17.131853229172639
10,647352806.8664938
839,97224920.01481244
2,1, 7,21, 0,12,40.00,50.00,SummerDesignDay
8,17.200807172194087
10,651252380.1450046
839,97154014.63463649
2,1, 7,21, 0,12,50.00,60.00,SummerDesignDay
8,17.269582116758607
10,655138211.4065687
839,97081992.8550735
2,1, 7,21, 0,12, 0.00,60.00,SummerDesignDay
1073,23.997429873956919
1113,23.997598376851398
1153,23.997351598845694
1193,23.99938158676294
1233,23.999392060892317
1273,23.998836726074545
1313,23.999308607275727
1353,23.999394001902095
1393,23.99804870892552
1433,23.998761395066365
1473,23.997719382993698
1513,23.998189546501494
1553,23.99970576813676
1593,23.999377445419517
1633,23.99823782037501
1673,23.997772537783434
1713,23.999909048006946
1753,24.22856855070101
1793,25.11170082010008
1833,25.384538472330435
2,1, 7,21, 0,13, 0.00,10.00,SummerDesignDay
8,17.32447360221357
10,666196354.133109
839,118263722.00300607
2,1, 7,21, 0,13,10.00,20.00,SummerDesignDay
8,17.379251291230806
10,670028957.6629825
839,129396778.52183913
2,1, 7,21, 0,13,20.00,30.00,SummerDesignDay
8,17.433921312061729
10,673235913.2645643
839,129397746.65365038
2,1, 7,21, 0,13,30.00,40.00,SummerDesignDay
8,17.488473222557489
10,676675216.1760371
839,129399565.1565397
2,1, 7,21, 0,13,40.00,50.00,SummerDesignDay
8,17.542913447755134
10,680018281.6641077
839,129401407.5200896
2,1, 7,21, 0,13,50.00,60.00,SummerDesignDay
8,17.59724609886134
10,683196744.6850396
839,129403224.30181384
2,1, 7,21, 0,13, 0.00,60.00,SummerDesignDay
1073,23.996870870922565
1113,24.42407786539461
1153,23.997414652962445
1193,23.99912335447588
1233,23.99922636300182
1273,23.99819147358014
1313,23.999207921835404
1353,23.999331888422988
1393,24.001076005944169
1433,23.998758998082097
1473,23.9976382661861
1513,23.99805629898775
1553,23.999508996459086
1593,23.99930976503525
1633,23.99814659730266
1673,23.997566275493925
1713,23.999914140786406
1753,24.159942705369095
1793,24.933446368485098
1833,25.303346045834016
2,1, 7,21, 0,14, 0.00,10.00,SummerDesignDay
8,17.6311450462694
10,683978256.6173619
839,136506789.73566333
2,1, 7,21, 0,14,10.00,20.00,SummerDesignDay
8,17.665000449016245
10,686347246.0439634
839,137345612.72411809
2,1, 7,21, 0,14,20.00,30.00,SummerDesignDay
8,17.698812743128934
10,688390244.6995108
839,137346842.71056644
2,1, 7,21, 0,14,30.00,40.00,SummerDesignDay
8,17.732582050940107
10,690413616.9764128
839,137348025.1865322
2,1, 7,21, 0,14,40.00,50.00,SummerDesignDay
8,17.766307345121004
10,693430439.8131598
839,135909916.0859579
2,1, 7,21, 0,14,50.00,60.00,SummerDesignDay
8,17.79999023167558
10,695533488.4230157
839,124332789.74183168
2,1, 7,21, 0,14, 0.00,60.00,SummerDesignDay
1073,23.99658492448842
1113,24.54761912436905
1153,23.997275345580449
1193,23.99874075520764
1233,23.999097879328365
1273,23.99766190857299
1313,23.999153662097645
1353,23.999216270776235
1393,24.115857778657444
1433,23.998673653750804
1473,23.997518966814288
1513,24.017717127002688
1553,23.999250270200805
1593,23.99903482574491
1633,23.997969858512417
1673,23.997409450779107
1713,23.99999304949257
1753,24.101480149856987
1793,24.798343013871777
1833,25.212718853165204
2,1, 7,21, 0,15, 0.00,10.00,SummerDesignDay
8,17.79999023167558
10,691011341.8084997
839,124314148.09192656
2,1, 7,21, 0,15,10.00,20.00,SummerDesignDay
8,17.79999023167558
10,691416857.858389
839,124294076.65995741
2,1, 7,21, 0,15,20.00,30.00,SummerDesignDay
8,17.79999023167558
10,691897131.4889555
839,124273775.03710431
2,1, 7,21, 0,15,30.00,40.00,SummerDesignDay
8,17.79999023167558
10,692341572.5767322
839,124253306.36599925
2,1, 7,21, 0,15,40.00,50.00,SummerDesignDay
8,17.79999023167558
10,692705601.4294292
839,124232668.80713012
2,1, 7,21, 0,15,50.00,60.00,SummerDesignDay
8,17.79999023167558
10,692952651.0645814
839,124211860.48143302
2,1, 7,21, 0,15, 0.00,60.00,SummerDesignDay
1073,23.997131767860016
1113,24.268693329678994
1153,23.9972252527263
1193,23.99853696701018
1233,23.998859965716588
1273,23.997883903098346
1313,24.034391266918889
1353,23.999175746879943
1393,24.217078630304525
1433,23.99859149422905
1473,23.99749844608188
1513,24.09839328288028
1553,23.99920109644377
1593,23.99902521477252
1633,23.997906000524436
1673,23.997451981232904
1713,23.999975312548487
1753,24.079573178137016
1793,24.491391697083388
1833,25.000181691728359
2,1, 7,21, 0,16, 0.00,10.00,SummerDesignDay
8,17.759562446305357
10,688050618.6086482
839,109225954.80797076
2,1, 7,21, 0,16,10.00,20.00,SummerDesignDay
8,17.71907809634183
10,679778570.1546822
839,107308172.53041868
2,1, 7,21, 0,16,20.00,30.00,SummerDesignDay
8,17.67853788661001
10,678389072.3474113
839,111968513.81857051
2,1, 7,21, 0,16,30.00,40.00,SummerDesignDay
8,17.63791796367351
10,676113485.6086822
839,122317796.87359798
2,1, 7,21, 0,16,40.00,50.00,SummerDesignDay
8,17.59724609886134
10,673294754.7692853
839,122320416.70741926
2,1, 7,21, 0,16,50.00,60.00,SummerDesignDay
8,17.55650676726033
10,670859743.2326721
839,122324398.87206024
2,1, 7,21, 0,16, 0.00,60.00,SummerDesignDay
1073,23.99798786342004
1113,24.007996160183454
1153,23.997290150783
1193,23.998407151905437
1233,23.998671879243699
1273,23.99855166246805
1313,24.02628301156291
1353,23.999161724414369
1393,24.13339323635783
1433,23.998562589004874
1473,23.99748634159769
1513,24.034134892097176
1553,23.999185409366999
1593,23.999080499126593
1633,23.99797134657037
1673,23.997576319195827
1713,23.99987863746045
1753,24.082836362153015
1793,24.044532911535425
1833,24.69312146841693
2,1, 7,21, 0,17, 0.00,10.00,SummerDesignDay
8,17.50209486331892
10,667985889.4291551
839,113915099.79955057
2,1, 7,21, 0,17,10.00,20.00,SummerDesignDay
8,17.447570789624618
10,664030900.7417266
839,113061725.31522194
2,1, 7,21, 0,17,20.00,30.00,SummerDesignDay
8,17.392929544208135
10,660914005.7895612
839,113074535.60786267
2,1, 7,21, 0,17,30.00,40.00,SummerDesignDay
8,17.33818013976614
10,657849488.0759318
839,113087614.32087176
2,1, 7,21, 0,17,40.00,50.00,SummerDesignDay
8,17.283317298559309
10,654741572.6958165
839,113037521.71784809
2,1, 7,21, 0,17,50.00,60.00,SummerDesignDay
8,17.22833552437677
10,651576179.9445415
839,91814059.688974
2,1, 7,21, 0,17, 0.00,60.00,SummerDesignDay
1073,23.998627084178435
1113,23.998360138892399
1153,23.997308572613908
1193,23.998302506434088
1233,23.99861846368204
1273,23.99900444397561
1313,23.998857825860559
1353,23.999154588640108
1393,23.999158799630125
1433,23.99845486514846
1473,23.9975410364387
1513,23.997771195921574
1553,23.99917619856956
1593,23.998988107340563
1633,23.99797585029297
1673,23.99779250466729
1713,23.99975371360453
1753,24.06860030852674
1793,23.689951535831744
1833,24.46600262400155
2,1, 7,21, 0,18, 0.00,10.00,SummerDesignDay
8,17.159453019160176
10,649118216.7630404
839,86298043.32548072
2,1, 7,21, 0,18,10.00,20.00,SummerDesignDay
8,17.090391773337136
10,645186077.030967
839,85539392.84879105
2,1, 7,21, 0,18,20.00,30.00,SummerDesignDay
8,17.021151077964786
10,641294239.5344741
839,85394810.80373204
2,1, 7,21, 0,18,30.00,40.00,SummerDesignDay
8,16.951729380464653
10,637449414.5996467
839,94536086.00611487
2,1, 7,21, 0,18,40.00,50.00,SummerDesignDay
8,16.882126503829249
10,633616012.8702438
839,110222463.80094396
2,1, 7,21, 0,18,50.00,60.00,SummerDesignDay
8,16.812341807494034
10,629739121.6572309
839,110237841.44689442
2,1, 7,21, 0,18, 0.00,60.00,SummerDesignDay
1073,23.99871352402643
1113,23.99850719906334
1153,23.99744926153627
1193,23.998339034927054
1233,23.998674224487585
1273,23.99895778209469
1313,23.99873679268347
1353,23.999055645559279
1393,23.997464706031324
1433,23.998404853334724
1473,23.997408253005614
1513,23.99765790277456
1553,23.999160276269078
1593,23.99917965605538
1633,23.99785006592498
1673,23.997925003401407
1713,23.999595831596918
1753,24.046985183325643
1793,23.44530430545696
1833,24.3303653040013
2,1, 7,21, 0,19, 0.00,10.00,SummerDesignDay
8,16.707321072823203
10,628991565.7525375
839,114045873.65984079
2,1, 7,21, 0,19,10.00,20.00,SummerDesignDay
8,16.601881826644556
10,624315609.3098563
839,114496054.76806423
2,1, 7,21, 0,19,20.00,30.00,SummerDesignDay
8,16.496030555252849
10,618743289.3789892
839,114507110.85882245
2,1, 7,21, 0,19,30.00,40.00,SummerDesignDay
8,16.389760181474104
10,613076191.5216347
839,114517962.18669312
2,1, 7,21, 0,19,40.00,50.00,SummerDesignDay
8,16.283067654262039
10,607338081.0744203
839,114528776.45854233
2,1, 7,21, 0,19,50.00,60.00,SummerDesignDay
8,16.17595057957811
10,601572311.7689223
839,97212101.99893414
2,1, 7,21, 0,19, 0.00,60.00,SummerDesignDay
1073,23.998152752132897
1113,23.997929540293769
1153,23.997615574223429
1193,23.998630292984019
1233,23.999018098344718
1273,23.998404387902526
1313,23.998561915621634
1353,23.998947381798446
1393,23.997308925968896
1433,23.998383171719966
1473,23.997382362889728
1513,23.99748910476447
1553,23.999277575303748
1593,23.999433064662357
1633,23.99780320885901
1673,23.99809482132669
1713,23.99956293147243
1753,24.022199324067186
1793,23.336100232391087
1833,24.30249603372073
2,1, 7,21, 0,20, 0.00,10.00,SummerDesignDay
8,16.097123145563505
10,566291598.7276179
839,101816576.01809687
2,1, 7,21, 0,20,10.00,20.00,SummerDesignDay
8,16.018070242471564
10,561638822.9787264
839,102524267.21914526
2,1, 7,21, 0,20,20.00,30.00,SummerDesignDay
8,15.938779752340516
10,557033370.7360433
839,102472868.68040672
2,1, 7,21, 0,20,30.00,40.00,SummerDesignDay
8,15.85926152575189
10,552303162.8833487
839,102421268.2187385
2,1, 7,21, 0,20,40.00,50.00,SummerDesignDay
8,15.779503718563929
10,547566750.8669024
839,102369001.77322464
2,1, 7,21, 0,20,50.00,60.00,SummerDesignDay
8,15.699515709672767
10,542691683.0526085
839,102316041.04927401
2,1, 7,21, 0,20, 0.00,60.00,SummerDesignDay
1073,23.99710836618145
1113,24.118866865821575
1153,23.997737906008056
1193,23.999211355260525
1233,23.999564981958959
1273,23.997383498076365
1313,23.998598553739897
1353,23.998968711436438
1393,23.99735213592147
1433,23.998453880863339
1473,23.99744089363054
1513,23.99751744972802
1553,23.999595339870838
1593,23.99974969156763
1633,23.99788069307698
1673,23.998325629178763
1713,23.999632865748393
1753,23.99352022366838
1793,23.406196331318694
1833,24.40893492971117
2,1, 7,21, 0,21, 0.00,10.00,SummerDesignDay
8,15.63389147320404
10,526250572.2671377
839,137783830.613626
2,1, 7,21, 0,21,10.00,20.00,SummerDesignDay
8,15.56810827419793
10,521832568.7487587
839,141652560.79301737
2,1, 7,21, 0,21,20.00,30.00,SummerDesignDay
8,15.502170882753524
10,517022478.716727
839,141653802.13832859
2,1, 7,21, 0,21,30.00,40.00,SummerDesignDay
8,15.436068032613852
10,512177789.9886142
839,141655333.0895801
2,1, 7,21, 0,21,40.00,50.00,SummerDesignDay
8,15.369804371206009
10,507546754.16580399
839,141656860.77239657
2,1, 7,21, 0,21,50.00,60.00,SummerDesignDay
8,15.303384603594449
10,502754358.2739509
839,141658361.586069
2,1, 7,21, 0,21, 0.00,60.00,SummerDesignDay
1073,23.996521720155557
1113,24.118417753352817
1153,23.997964577232506
1193,23.99949903245503
1233,23.999817742284319
1273,23.996697604952059
1313,23.998732022439694
1353,23.9990422715114
1393,23.997488732276435
1433,23.998581293560297
1473,23.997495199725497
1513,23.99763105835987
1553,23.999769145693788
1593,23.99987105275824
1633,23.998005178729647
1673,23.998512597617049
1713,23.999769762492265
1753,23.96872888961536
1793,23.662121764827075
1833,24.64899792162738
2,1, 7,21, 0,22, 0.00,10.00,SummerDesignDay
8,15.236797685071274