Program Version,EnergyPlus, Version 8.9.0-eba93e8e1b, YMD=2019.04.04 18:00
1,5,Environment Title[],Latitude[deg],Longitude[deg],Time Zone[],Elevation[m]
2,8,Day of Simulation[],Month[],Day of Month[],DST Indicator[1=yes 0=no],Hour[],StartMinute[],EndMinute[],DayType
3,5,Cumulative Day of Simulation[],Month[],Day of Month[],DST Indicator[1=yes 0=no],DayType  ! When Daily Report Variables Requested
4,2,Cumulative Days of Simulation[],Month[]  ! When Monthly Report Variables Requested
5,1,Cumulative Days of Simulation[] ! When Run Period Report Variables Requested
6,1,Calendar Year of Simulation[] ! When Annual Report Variables Requested
7,9,Environment,Site Outdoor Air Drybulb Temperature [C] !Monthly [Value,Min,Day,Hour,Minute,Max,Day,Hour,Minute]
8,1,Environment,Site Outdoor Air Wetbulb Temperature [C] !TimeStep
357,1,WHOLEBUILDING-DINING - FAMILY ZN,Zone Air Temperature [C] !Hourly
358,7,WHOLEBUILDING-DINING - FAMILY ZN,Zone Air Relative Humidity [%] !Daily [Value,Min,Hour,Minute,Max,Hour,Minute]
397,1,WHOLEBUILDING-DORMITORY ZN,Zone Air Temperature [C] !Hourly
398,7,WHOLEBUILDING-DORMITORY ZN,Zone Air Relative Humidity [%] !Daily [Value,Min,Hour,Minute,Max,Hour,Minute]
437,1,WHOLEBUILDING-EXERCISE CENTRE ZN,Zone Air Temperature [C] !Hourly
438,7,WHOLEBUILDING-EXERCISE CENTRE ZN,Zone Air Relative Humidity [%] !Daily [Value,Min,Hour,Minute,Max,Hour,Minute]
477,1,WHOLEBUILDING-FIRE STATION ZN,Zone Air Temperature [C] !Hourly
478,7,WHOLEBUILDING-FIRE STATION ZN,Zone Air Relative Humidity [%] !Daily [Value,Min,Hour,Minute,Max,Hour,Minute]
517,1,WHOLEBUILDING-GYMNASIUM ZN,Zone Air Temperature [C] !Hourly
518,7,WHOLEBUILDING-GYMNASIUM ZN,Zone Air Relative Humidity [%] !Daily [Value,Min,Hour,Minute,Max,Hour,Minute]
10,1,Electricity:Facility [J] !TimeStep
668,1,DistrictCooling:Facility [J] !TimeStep
631,1,DistrictHeating:Facility [J] !TimeStep
End of Data Dictionary
1,FORT MCMURRAY AP ANN CLG .4% CONDNS DB=>MWB,  56.65,-111.22,  -7.00, 369.10
2,1, 7,21, 0, 1, 0.00,10.00,SummerDesignDay
8,14.218136923962174
10,41693021.64115476
631,0.0
668,3991260.224092381
2,1, 7,21, 0, 1,10.00,20.00,SummerDesignDay
8,14.171982153293495
10,41693021.64115476
631,0.0
668,2811572.2036362376
2,1, 7,21, 0, 1,20.00,30.00,SummerDesignDay
8,14.125744780286427
10,41693021.64115476
631,0.0
668,1890070.6273958584
2,1, 7,21, 0, 1,30.00,40.00,SummerDesignDay
8,14.079436086331978
10,41693021.64115476
631,0.0
668,991723.893625857
2,1, 7,21, 0, 1,40.00,50.00,SummerDesignDay
8,14.033050387896898
10,41693021.64115476
631,0.0
668,771963.1665930027
2,1, 7,21, 0, 1,50.00,60.00,SummerDesignDay
8,13.986581233564835
10,41693021.64115476
631,0.0
668,655005.4911424255
2,1, 7,21, 0, 1, 0.00,60.00,SummerDesignDay
357,23.99060013683989
397,24.00000000000001
437,23.91117484798706
477,23.36248929867364
517,23.9936533781979
2,1, 7,21, 0, 2, 0.00,10.00,SummerDesignDay
8,13.95555882260429
10,22367125.74416472
631,0.0
668,0.0
2,1, 7,21, 0, 2,10.00,20.00,SummerDesignDay
8,13.924507755336454
10,22367125.74416472
631,0.0
668,0.0
2,1, 7,21, 0, 2,20.00,30.00,SummerDesignDay
8,13.893416042989206
10,22367125.74416472
631,0.0
668,0.0
2,1, 7,21, 0, 2,30.00,40.00,SummerDesignDay
8,13.862289589689029
10,22367125.74416472
631,0.0
668,0.0
2,1, 7,21, 0, 2,40.00,50.00,SummerDesignDay
8,13.831134407608739
10,22367125.74416472
631,0.0
668,0.0
2,1, 7,21, 0, 2,50.00,60.00,SummerDesignDay
8,13.799938415548118
10,22367125.74416472
631,0.0
668,0.0
2,1, 7,21, 0, 2, 0.00,60.00,SummerDesignDay
357,23.069934712343053
397,23.740183165060015
437,22.907916863181105
477,22.721922637156994
517,23.074684219675804
2,1, 7,21, 0, 3, 0.00,10.00,SummerDesignDay
8,13.776521671948676
10,6146232.862478111
631,0.0
668,0.0
2,1, 7,21, 0, 3,10.00,20.00,SummerDesignDay
8,13.753085235778466
10,6146232.862478111
631,0.0
668,0.0
2,1, 7,21, 0, 3,20.00,30.00,SummerDesignDay
8,13.729636002354969
10,6146232.862478111
631,0.0
668,0.0
2,1, 7,21, 0, 3,30.00,40.00,SummerDesignDay
8,13.706147375533054
10,6146232.862478111
631,0.0
668,0.0
2,1, 7,21, 0, 3,40.00,50.00,SummerDesignDay
8,13.682651961920304
10,6146232.862478111
631,0.0
668,0.0
2,1, 7,21, 0, 3,50.00,60.00,SummerDesignDay
8,13.659136670643687
10,6146232.862478111
631,0.0
668,0.0
2,1, 7,21, 0, 3, 0.00,60.00,SummerDesignDay
357,21.29358051610333
397,23.217406380608698
437,21.181690161613145
477,22.151747152466937
517,21.278883249331959
2,1, 7,21, 0, 4, 0.00,10.00,SummerDesignDay
8,13.63560137410855
10,5382080.253782559
631,0.0
668,0.0
2,1, 7,21, 0, 4,10.00,20.00,SummerDesignDay
8,13.612040802606578
10,5382080.253782559
631,0.0
668,0.0
2,1, 7,21, 0, 4,20.00,30.00,SummerDesignDay
8,13.58846620506876
10,5382080.253782559
631,0.0
668,0.0
2,1, 7,21, 0, 4,30.00,40.00,SummerDesignDay
8,13.56487178447336
10,5382080.253782559
631,0.0
668,0.0
2,1, 7,21, 0, 4,40.00,50.00,SummerDesignDay
8,13.541257354069103
10,5382080.253782559
631,0.0
668,0.0
2,1, 7,21, 0, 4,50.00,60.00,SummerDesignDay
8,13.517617463812285
10,5382080.253782559
631,0.0
668,0.0
2,1, 7,21, 0, 4, 0.00,60.00,SummerDesignDay
357,20.1258767458751
397,22.675742333795097
437,20.072731655069324
477,21.499188462568389
517,20.12318662139391
2,1, 7,21, 0, 5, 0.00,10.00,SummerDesignDay
8,13.50185415824011
10,5382080.253782559
631,0.0
668,0.0
2,1, 7,21, 0, 5,10.00,20.00,SummerDesignDay
8,13.486076034032447
10,5382080.253782559
631,0.0
668,0.0
2,1, 7,21, 0, 5,20.00,30.00,SummerDesignDay
8,13.470289340350983
10,5382080.253782559
631,0.0
668,0.0
2,1, 7,21, 0, 5,30.00,40.00,SummerDesignDay
8,13.454493322631063
10,5382080.253782559
631,0.0
668,0.0
2,1, 7,21, 0, 5,40.00,50.00,SummerDesignDay
8,13.438688835118548
10,5382080.253782559
631,0.0
668,0.0
2,1, 7,21, 0, 5,50.00,60.00,SummerDesignDay
8,13.422888173889437
10,5382080.253782559
631,0.0
668,0.0
2,1, 7,21, 0, 5, 0.00,60.00,SummerDesignDay
357,19.568305809678195
397,22.259791821131345
437,19.553894565476765
477,20.99593189102561
517,19.59243393912013
2,1, 7,21, 0, 6, 0.00,10.00,SummerDesignDay
8,13.438688835118548
10,5382080.253782559
631,0.0
668,0.0
2,1, 7,21, 0, 6,10.00,20.00,SummerDesignDay
8,13.454493322631063
10,5382080.253782559
631,0.0
668,0.0
2,1, 7,21, 0, 6,20.00,30.00,SummerDesignDay
8,13.470289340350983
10,5382080.253782559
631,0.0
668,0.0
2,1, 7,21, 0, 6,30.00,40.00,SummerDesignDay
8,13.486076034032447
10,5382080.253782559
631,0.0
668,0.0
2,1, 7,21, 0, 6,40.00,50.00,SummerDesignDay
8,13.50185415824011
10,5382080.253782559
631,0.0
668,0.0
2,1, 7,21, 0, 6,50.00,60.00,SummerDesignDay
8,13.517617463812285
10,5382080.253782559
631,0.0
668,0.0
2,1, 7,21, 0, 6, 0.00,60.00,SummerDesignDay
357,19.30017022538644
397,21.996507665054595
437,19.307529454659738
477,20.731851410196176
517,19.342190357230544
2,1, 7,21, 0, 7, 0.00,10.00,SummerDesignDay
8,13.572736920571789
10,7519231.658661578
631,0.0
668,0.0
2,1, 7,21, 0, 7,10.00,20.00,SummerDesignDay
8,13.627748229152554
10,7519231.658661578
631,0.0
668,0.0
2,1, 7,21, 0, 7,20.00,30.00,SummerDesignDay
8,13.682651961920304
10,7519231.658661578
631,0.0
668,0.0
2,1, 7,21, 0, 7,30.00,40.00,SummerDesignDay
8,13.737448093244995
10,7519231.658661578
631,0.0
668,0.0
2,1, 7,21, 0, 7,40.00,50.00,SummerDesignDay
8,13.792137011831216
10,7519231.658661578
631,0.0
668,0.0
2,1, 7,21, 0, 7,50.00,60.00,SummerDesignDay
8,13.846719282840333
10,7519231.658661578
631,0.0
668,0.0
2,1, 7,21, 0, 7, 0.00,60.00,SummerDesignDay
357,19.35891354067897
397,22.11992489049241
437,19.375863856837765
477,20.832398848160268
517,19.40913420632889
2,1, 7,21, 0, 8, 0.00,10.00,SummerDesignDay
8,13.978831900527043
10,12795148.344323943
631,0.0
668,0.0
2,1, 7,21, 0, 8,10.00,20.00,SummerDesignDay
8,14.110321014287419
10,12795148.344323943
631,0.0
668,0.0
2,1, 7,21, 0, 8,20.00,30.00,SummerDesignDay
8,14.241191509616986
10,12795148.344323943
631,0.0
668,0.0
2,1, 7,21, 0, 8,30.00,40.00,SummerDesignDay
8,14.371447531304272
10,12795148.344323943
631,0.0
668,0.0
2,1, 7,21, 0, 8,40.00,50.00,SummerDesignDay
8,14.501093766564925
10,12795148.344323943
631,0.0
668,0.0
2,1, 7,21, 0, 8,50.00,60.00,SummerDesignDay
8,14.630134792273804
10,12795148.344323943
631,0.0
668,0.0
2,1, 7,21, 0, 8, 0.00,60.00,SummerDesignDay
357,19.888550612372819
397,22.970152415437967
437,19.90551211930909
477,21.40301658824779
517,19.938157474563409
2,1, 7,21, 0, 9, 0.00,10.00,SummerDesignDay
8,14.773641492809972
10,13559300.953019495
631,1388667.3706024849
668,0.0
2,1, 7,21, 0, 9,10.00,20.00,SummerDesignDay
8,14.91640948124148
10,13559300.953019495
631,0.0
668,0.0
2,1, 7,21, 0, 9,20.00,30.00,SummerDesignDay
8,15.05843890714102
10,13559300.953019495
631,0.0
668,0.0
2,1, 7,21, 0, 9,30.00,40.00,SummerDesignDay
8,15.199735893563798
10,13559300.953019495
631,0.0
668,0.0
2,1, 7,21, 0, 9,40.00,50.00,SummerDesignDay
8,15.340306256439395
10,13559300.953019495
631,0.0
668,2161790.8633510938
2,1, 7,21, 0, 9,50.00,60.00,SummerDesignDay
8,15.48015101768072
10,13559300.953019495
631,0.0
668,2319263.8890847
2,1, 7,21, 0, 9, 0.00,60.00,SummerDesignDay
357,20.98495711804695
397,23.849215225693614
437,20.99306786621503
477,22.389555709219168
517,21.02521098069316
2,1, 7,21, 0,10, 0.00,10.00,SummerDesignDay
8,15.60467292907716
10,24458135.386221179
631,16657559.558631558
668,0.0
2,1, 7,21, 0,10,10.00,20.00,SummerDesignDay
8,15.72862731650033
10,24458135.386221179
631,0.0
668,0.0
2,1, 7,21, 0,10,20.00,30.00,SummerDesignDay
8,15.852017409284228
10,24458135.386221179
631,0.0
668,0.0
2,1, 7,21, 0,10,30.00,40.00,SummerDesignDay
8,15.974848118364367
10,24458135.386221179
631,0.0
668,0.0
2,1, 7,21, 0,10,40.00,50.00,SummerDesignDay
8,16.097123145563505
10,24458135.386221179
631,0.0
668,0.0
2,1, 7,21, 0,10,50.00,60.00,SummerDesignDay
8,16.218846351168599
10,24458135.386221179
631,0.0
668,13653033.350781758
2,1, 7,21, 0,10, 0.00,60.00,SummerDesignDay
357,23.257946833664098
397,23.82944729973653
437,23.229310527112664
477,23.30139127240157
517,23.272204402578266
2,1, 7,21, 0,11, 0.00,10.00,SummerDesignDay
8,16.325793027093189
10,32568581.827064486
631,0.0
668,29832649.797982955
2,1, 7,21, 0,11,10.00,20.00,SummerDesignDay
8,16.432322158488288
10,32568581.827064486
631,0.0
668,34537290.798203248
2,1, 7,21, 0,11,20.00,30.00,SummerDesignDay
8,16.538424180249178
10,32568581.827064486
631,0.0
668,39066536.26030256
2,1, 7,21, 0,11,30.00,40.00,SummerDesignDay
8,16.644108396469087
10,32568581.827064486
631,0.0
668,44653484.9540586
2,1, 7,21, 0,11,40.00,50.00,SummerDesignDay
8,16.749376736593655
10,32568581.827064486
631,0.0
668,48120222.326777879
2,1, 7,21, 0,11,50.00,60.00,SummerDesignDay
8,16.854232613237156
10,32568581.827064486
631,0.0
668,52152625.061556968
2,1, 7,21, 0,11, 0.00,60.00,SummerDesignDay
357,23.999884021730094
397,23.968986099803784
437,23.999795328717217
477,23.995831733091838
517,23.99994462025177
2,1, 7,21, 0,12, 0.00,10.00,SummerDesignDay
8,16.92390823520069
10,39914875.65921224
631,0.0
668,66876596.82626262
2,1, 7,21, 0,12,10.00,20.00,SummerDesignDay
8,16.99340178950456
10,39914875.65921224
631,0.0
668,69911636.60224816
2,1, 7,21, 0,12,20.00,30.00,SummerDesignDay
8,17.06272006743463
10,39914875.65921224
631,0.0
668,71912095.24548951
2,1, 7,21, 0,12,30.00,40.00,SummerDesignDay
8,17.131853229172639
10,39914875.65921224
631,0.0
668,73970924.09263084
2,1, 7,21, 0,12,40.00,50.00,SummerDesignDay
8,17.200807172194087
10,39914875.65921224
631,0.0
668,75919932.04415405
2,1, 7,21, 0,12,50.00,60.00,SummerDesignDay
8,17.269582116758607
10,39914875.65921224
631,0.0
668,77791871.9253757
2,1, 7,21, 0,12, 0.00,60.00,SummerDesignDay
357,23.999999999949258
397,23.999999999814354
437,23.999999999919316
477,23.999999999852176
517,23.9999999999791
2,1, 7,21, 0,13, 0.00,10.00,SummerDesignDay
8,17.32447360221357
10,39150723.05051669
631,0.0
668,87853361.19519966
2,1, 7,21, 0,13,10.00,20.00,SummerDesignDay
8,17.379251291230806
10,39150723.05051669
631,0.0
668,89589576.50375489
2,1, 7,21, 0,13,20.00,30.00,SummerDesignDay
8,17.433921312061729
10,39150723.05051669
631,0.0
668,91008279.36688055
2,1, 7,21, 0,13,30.00,40.00,SummerDesignDay
8,17.488473222557489
10,39150723.05051669
631,0.0
668,92464188.79860598
2,1, 7,21, 0,13,40.00,50.00,SummerDesignDay
8,17.542913447755134
10,39150723.05051669
631,0.0
668,93869214.84653388
2,1, 7,21, 0,13,50.00,60.00,SummerDesignDay
8,17.59724609886134
10,39150723.05051669
631,0.0
668,95252484.6520792
2,1, 7,21, 0,13, 0.00,60.00,SummerDesignDay
357,24.000000000000055
397,24.0
437,24.00000000000001
477,24.0
517,23.99999999999999
2,1, 7,21, 0,14, 0.00,10.00,SummerDesignDay
8,17.6311450462694
10,39150723.05051669
631,0.0
668,93904097.11182627
2,1, 7,21, 0,14,10.00,20.00,SummerDesignDay
8,17.665000449016245
10,39150723.05051669
631,0.0
668,94607590.32327786
2,1, 7,21, 0,14,20.00,30.00,SummerDesignDay
8,17.698812743128934
10,39150723.05051669
631,0.0
668,95411728.54465205
2,1, 7,21, 0,14,30.00,40.00,SummerDesignDay
8,17.732582050940107
10,39150723.05051669
631,0.0
668,96209871.84562887
2,1, 7,21, 0,14,40.00,50.00,SummerDesignDay
8,17.766307345121004
10,39150723.05051669
631,0.0
668,97003875.48585657
2,1, 7,21, 0,14,50.00,60.00,SummerDesignDay
8,17.79999023167558
10,39150723.05051669
631,0.0
668,97789532.52470191
2,1, 7,21, 0,14, 0.00,60.00,SummerDesignDay
357,23.999999999999998
397,24.0
437,24.0
477,24.000000000000005
517,24.000000000000026
2,1, 7,21, 0,15, 0.00,10.00,SummerDesignDay
8,17.79999023167558
10,39150723.05051669
631,0.0
668,91025378.74535682
2,1, 7,21, 0,15,10.00,20.00,SummerDesignDay
8,17.79999023167558
10,39150723.05051669
631,0.0
668,90708951.21107336
2,1, 7,21, 0,15,20.00,30.00,SummerDesignDay
8,17.79999023167558
10,39150723.05051669
631,0.0
668,90707622.31708895
2,1, 7,21, 0,15,30.00,40.00,SummerDesignDay
8,17.79999023167558
10,39150723.05051669
631,0.0
668,90670171.67600996
2,1, 7,21, 0,15,40.00,50.00,SummerDesignDay
8,17.79999023167558
10,39150723.05051669
631,0.0
668,90632585.88303542
2,1, 7,21, 0,15,50.00,60.00,SummerDesignDay
8,17.79999023167558
10,39150723.05051669
631,0.0
668,90600393.63671713
2,1, 7,21, 0,15, 0.00,60.00,SummerDesignDay
357,24.00000000000003
397,24.0
437,24.00000000000001
477,24.0
517,24.00000000000003
2,1, 7,21, 0,16, 0.00,10.00,SummerDesignDay
8,17.759562446305357
10,39150723.05051669
631,0.0
668,82835699.21361302
2,1, 7,21, 0,16,10.00,20.00,SummerDesignDay
8,17.71907809634183
10,39150723.05051669
631,0.0
668,81566245.77859289
2,1, 7,21, 0,16,20.00,30.00,SummerDesignDay
8,17.67853788661001
10,39150723.05051669
631,0.0
668,80622585.8576112
2,1, 7,21, 0,16,30.00,40.00,SummerDesignDay
8,17.63791796367351
10,39150723.05051669
631,0.0
668,79640735.47065509
2,1, 7,21, 0,16,40.00,50.00,SummerDesignDay
8,17.59724609886134
10,39150723.05051669
631,0.0
668,78645303.62852755
2,1, 7,21, 0,16,50.00,60.00,SummerDesignDay
8,17.55650676726033
10,39150723.05051669
631,0.0
668,77642142.3621962
2,1, 7,21, 0,16, 0.00,60.00,SummerDesignDay
357,24.0
397,24.0
437,23.99999999999999
477,24.0
517,23.999999999999998
2,1, 7,21, 0,17, 0.00,10.00,SummerDesignDay
8,17.50209486331892
10,39432075.26284936
631,0.0
668,76825256.76152626
2,1, 7,21, 0,17,10.00,20.00,SummerDesignDay
8,17.447570789624618
10,39432075.26284936
631,0.0
668,75562269.72465158
2,1, 7,21, 0,17,20.00,30.00,SummerDesignDay
8,17.392929544208135
10,39432075.26284936
631,0.0
668,74282888.33340398
2,1, 7,21, 0,17,30.00,40.00,SummerDesignDay
8,17.33818013976614
10,39432075.26284936
631,0.0
668,73002600.0295033
2,1, 7,21, 0,17,40.00,50.00,SummerDesignDay
8,17.283317298559309
10,39432075.26284936
631,0.0
668,71725652.60336133
2,1, 7,21, 0,17,50.00,60.00,SummerDesignDay
8,17.22833552437677
10,39432075.26284936
631,0.0
668,70449497.90120572
2,1, 7,21, 0,17, 0.00,60.00,SummerDesignDay
357,24.00000000000003
397,24.0
437,23.999999999999998
477,24.0
517,23.999999999999998
2,1, 7,21, 0,18, 0.00,10.00,SummerDesignDay
8,17.159453019160176
10,38588018.62585133
631,0.0
668,71406542.3786206
2,1, 7,21, 0,18,10.00,20.00,SummerDesignDay
8,17.090391773337136
10,38588018.62585133
631,0.0
668,69896202.3722449
2,1, 7,21, 0,18,20.00,30.00,SummerDesignDay
8,17.021151077964786
10,38588018.62585133
631,0.0
668,68306104.02540276
2,1, 7,21, 0,18,30.00,40.00,SummerDesignDay
8,16.951729380464653
10,38588018.62585133
631,0.0
668,66725934.19857824
2,1, 7,21, 0,18,40.00,50.00,SummerDesignDay
8,16.882126503829249
10,38588018.62585133
631,0.0
668,65146904.18682493
2,1, 7,21, 0,18,50.00,60.00,SummerDesignDay
8,16.812341807494034
10,38588018.62585133
631,0.0
668,63566733.7493266
2,1, 7,21, 0,18, 0.00,60.00,SummerDesignDay
357,24.000000000000015
397,24.0
437,24.0
477,24.0
517,24.000000000000015
2,1, 7,21, 0,19, 0.00,10.00,SummerDesignDay
8,16.707321072823203
10,40557484.11218007
631,0.0
668,70841051.45127183
2,1, 7,21, 0,19,10.00,20.00,SummerDesignDay
8,16.601881826644556
10,40557484.11218007
631,0.0
668,68848086.12618126
2,1, 7,21, 0,19,20.00,30.00,SummerDesignDay
8,16.496030555252849
10,40557484.11218007
631,0.0
668,66616113.57031822
2,1, 7,21, 0,19,30.00,40.00,SummerDesignDay
8,16.389760181474104
10,40557484.11218007
631,0.0
668,64408281.62456599
2,1, 7,21, 0,19,40.00,50.00,SummerDesignDay
8,16.283067654262039
10,40557484.11218007
631,0.0
668,62177755.139605227
2,1, 7,21, 0,19,50.00,60.00,SummerDesignDay
8,16.17595057957811
10,40557484.11218007
631,0.0
668,59922574.120243597
2,1, 7,21, 0,19, 0.00,60.00,SummerDesignDay
357,24.000000000000005
397,24.0
437,24.0
477,24.000000000000005
517,24.000000000000019
2,1, 7,21, 0,20, 0.00,10.00,SummerDesignDay
8,16.097123145563505
10,49792589.12978787
631,0.0
668,71168528.78620363
2,1, 7,21, 0,20,10.00,20.00,SummerDesignDay
8,16.018070242471564
10,49792589.12978787
631,0.0
668,71806621.44281614
2,1, 7,21, 0,20,20.00,30.00,SummerDesignDay
8,15.938779752340516
10,49792589.12978787
631,0.0
668,70194999.12831974
2,1, 7,21, 0,20,30.00,40.00,SummerDesignDay
8,15.85926152575189
10,49792589.12978787
631,0.0
668,68818065.82643388
2,1, 7,21, 0,20,40.00,50.00,SummerDesignDay
8,15.779503718563929
10,49792589.12978787
631,0.0
668,67335835.53717783
2,1, 7,21, 0,20,50.00,60.00,SummerDesignDay
8,15.699515709672767
10,49792589.12978787
631,0.0
668,65824266.4912433
2,1, 7,21, 0,20, 0.00,60.00,SummerDesignDay
357,24.000000000000019
397,24.00000000000001
437,24.000000000000005
477,24.0
517,24.00000000000001
2,1, 7,21, 0,21, 0.00,10.00,SummerDesignDay
8,15.63389147320404
10,50758189.92251362
631,0.0
668,66014732.481478918
2,1, 7,21, 0,21,10.00,20.00,SummerDesignDay
8,15.56810827419793
10,50758189.92251362
631,0.0
668,64935837.620245058
2,1, 7,21, 0,21,20.00,30.00,SummerDesignDay
8,15.502170882753524
10,50758189.92251362
631,0.0
668,63561516.78219348
2,1, 7,21, 0,21,30.00,40.00,SummerDesignDay
8,15.436068032613852
10,50758189.92251362
631,0.0
668,62135136.76176206
2,1, 7,21, 0,21,40.00,50.00,SummerDesignDay
8,15.369804371206009
10,50758189.92251362
631,0.0
668,60679998.142315018
2,1, 7,21, 0,21,50.00,60.00,SummerDesignDay
8,15.303384603594449
10,50758189.92251362
631,0.0
668,58986411.70406775
2,1, 7,21, 0,21, 0.00,60.00,SummerDesignDay
357,24.00000000000004
397,24.00000000000001
437,24.0
477,24.0
517,24.00000000000001
2,1, 7,21, 0,22, 0.00,10.00,SummerDesignDay
8,15.236797685071274
10,50959638.10654382
631,0.0
668,57437713.77646101
2,1, 7,21, 0,22,10.00,20.00,SummerDesignDay
8,15.170047891787942
10,50959638.10654382
631,0.0
668,55706343.43185238
2,1, 7,21, 0,22,20.00,30.00,SummerDesignDay
8,15.103134826860483
10,50959638.10654382
631,0.0
668,53898261.59572112
2,1, 7,21, 0,22,30.00,40.00,SummerDesignDay
8,15.036063385178485
10,50959638.10654382
631,0.0
668,52095793.31208375
2,1, 7,21, 0,22,40.00,50.00,SummerDesignDay
8,14.968821767219835
10,50959638.10654382
631,0.0
668,50290856.45421864
2,1, 7,21, 0,22,50.00,60.00,SummerDesignDay
8,14.90141525878635
10,50959638.10654382
631,0.0
668,48481094.58572915
2,1, 7,21, 0,22, 0.00,60.00,SummerDesignDay
357,24.00000000000001
397,24.0
437,24.00000000000001
477,24.000000000000005
517,24.000000000000055
2,1, 7,21, 0,23, 0.00,10.00,SummerDesignDay
8,14.848873673278373
10,49508986.09975653
631,0.0
668,36331360.108487177
2,1, 7,21, 0,23,10.00,20.00,SummerDesignDay
8,14.796237168136719
10,49508986.09975653
631,0.0
668,34267747.14834108
2,1, 7,21, 0,23,20.00,30.00,SummerDesignDay
8,14.743494321455645
10,49508986.09975653
631,0.0
668,32822499.829934189
2,1, 7,21, 0,23,30.00,40.00,SummerDesignDay
8,14.690649975253665
10,49508986.09975653
631,0.0
668,31310264.138235894
2,1, 7,21, 0,23,40.00,50.00,SummerDesignDay
8,14.637704281233117
10,49508986.09975653
631,0.0
668,29799445.124949479
2,1, 7,21, 0,23,50.00,60.00,SummerDesignDay
8,14.584656914839757
10,49508986.09975653
631,0.0
668,28301182.379052745
2,1, 7,21, 0,23, 0.00,60.00,SummerDesignDay
357,23.999999999999987
397,24.0
437,24.0
477,24.0
517,24.00000000000001
2,1, 7,21, 0,24, 0.00,10.00,SummerDesignDay
8,14.531507212058875
10,46607682.08618196
631,0.0
668,17962674.47005967
2,1, 7,21, 0,24,10.00,20.00,SummerDesignDay
8,14.47825496413355
10,46607682.08618196
631,0.0
668,16127262.6354144
2,1, 7,21, 0,24,20.00,30.00,SummerDesignDay
8,14.4249000133173
10,46607682.08618196
631,0.0
668,14828472.155585919
2,1, 7,21, 0,24,30.00,40.00,SummerDesignDay
8,14.371447531304272
10,46607682.08618196
631,0.0
668,13444052.443577819
2,1, 7,21, 0,24,40.00,50.00,SummerDesignDay
8,14.31788619902223
10,46607682.08618196
631,0.0
668,12081488.942355868
2,1, 7,21, 0,24,50.00,60.00,SummerDesignDay
8,14.264220970176066
10,46607682.08618196
631,0.0
668,10744815.506224215
2,1, 7,21, 0,24, 0.00,60.00,SummerDesignDay
357,23.999999999999987
397,24.000000000000005
437,23.999999999999976
477,23.94102641378751
517,24.000000000000005
3,1, 7,21, 0,SummerDesignDay
358,48.98109979585894,41.632933136052887,17,60,60.354903113568749, 6,60
398,48.81992129385818,43.33889578419416,17,60,58.40536382925428, 6,60
438,49.157101199063998,41.676671005516819,17,60,60.30825542483911, 6,60
478,48.09841820189555,41.26776239885254,16,30,58.52206620468486, 6,60
518,48.97963278054825,41.676459983017888,17,60,60.18005738123264, 6,60
4,1, 7
7,22.2505,16.5,21, 5,60,28.9,21,14,60
1,FORT MCMURRAY AP ANN HTG 99.6% CONDNS DB,  56.65,-111.22,  -7.00, 369.10
2,1, 1,21, 0, 1, 0.00,10.00,WinterDesignDay
8,-36.2
10,41693021.64115476
631,367397822.65689256
668,0.0
2,1, 1,21, 0, 1,10.00,20.00,WinterDesignDay
8,-36.2
10,41693021.64115476
631,367722852.8411997
668,0.0
2,1, 1,21, 0, 1,20.00,30.00,WinterDesignDay
8,-36.2
10,41693021.64115476
631,367869703.4334767
668,0.0
2,1, 1,21, 0, 1,30.00,40.00,WinterDesignDay
8,-36.2
10,41693021.64115476
631,368001384.77046236
668,0.0
2,1, 1,21, 0, 1,40.00,50.00,WinterDesignDay
8,-36.2
10,41693021.64115476
631,368100264.58399829
668,0.0
2,1, 1,21, 0, 1,50.00,60.00,WinterDesignDay
8,-36.2
10,41693021.64115476
631,368186609.3054272
668,0.0
2,1, 1,21, 0, 1, 0.00,60.00,WinterDesignDay
357,22.000000000000005
397,22.00000000000001
437,22.000000000000015
477,22.0
517,22.00000000000001
2,1, 1,21, 0, 2, 0.00,10.00,WinterDesignDay
8,-36.2
10,22367125.74416472
631,320011001.63440397
668,0.0
2,1, 1,21, 0, 2,10.00,20.00,WinterDesignDay
8,-36.2
10,22367125.74416472
631,337479989.69996079
668,0.0
2,1, 1,21, 0, 2,20.00,30.00,WinterDesignDay
8,-36.2
10,22367125.74416472
631,356624561.359107
668,0.0
2,1, 1,21, 0, 2,30.00,40.00,WinterDesignDay
8,-36.2
10,22367125.74416472
631,365888149.32290068
668,0.0
2,1, 1,21, 0, 2,40.00,50.00,WinterDesignDay
8,-36.2
10,22367125.74416472
631,371981210.5342178
668,0.0
2,1, 1,21, 0, 2,50.00,60.00,WinterDesignDay
8,-36.2
10,22367125.74416472
631,371532136.55736139
668,0.0
2,1, 1,21, 0, 2, 0.00,60.00,WinterDesignDay
357,22.000000000000005
397,18.67479824271867
437,22.000000000000005
477,18.241078577642836
517,22.0
2,1, 1,21, 0, 3, 0.00,10.00,WinterDesignDay
8,-36.2
10,6146232.862478111
631,235787074.08061565
668,0.0
2,1, 1,21, 0, 3,10.00,20.00,WinterDesignDay
8,-36.2
10,6146232.862478111
631,306411641.2336664
668,0.0
2,1, 1,21, 0, 3,20.00,30.00,WinterDesignDay
8,-36.2
10,6146232.862478111
631,339819925.65068009
668,0.0
2,1, 1,21, 0, 3,30.00,40.00,WinterDesignDay
8,-36.2
10,6146232.862478111
631,343183136.58380189
668,0.0
2,1, 1,21, 0, 3,40.00,50.00,WinterDesignDay
8,-36.2
10,6146232.862478111
631,351661353.241779
668,0.0
2,1, 1,21, 0, 3,50.00,60.00,WinterDesignDay
8,-36.2
10,6146232.862478111
631,353314492.26873877
668,0.0
2,1, 1,21, 0, 3, 0.00,60.00,WinterDesignDay
357,18.121761835752534
397,18.000000000002549
437,18.1231609369557
477,18.0000000000001
517,18.123792866260435
2,1, 1,21, 0, 4, 0.00,10.00,WinterDesignDay
8,-36.2
10,5382080.253782559
631,355055566.0291734
668,0.0
2,1, 1,21, 0, 4,10.00,20.00,WinterDesignDay
8,-36.2
10,5382080.253782559
631,356019546.4529618
668,0.0
2,1, 1,21, 0, 4,20.00,30.00,WinterDesignDay
8,-36.2
10,5382080.253782559
631,356720335.43250277
668,0.0
2,1, 1,21, 0, 4,30.00,40.00,WinterDesignDay
8,-36.2
10,5382080.253782559
631,357281967.2869682
668,0.0
2,1, 1,21, 0, 4,40.00,50.00,WinterDesignDay
8,-36.2
10,5382080.253782559
631,357709875.63608059
668,0.0
2,1, 1,21, 0, 4,50.00,60.00,WinterDesignDay
8,-36.2
10,5382080.253782559
631,358038484.84563186
668,0.0
2,1, 1,21, 0, 4, 0.00,60.00,WinterDesignDay
357,18.000000000016347
397,18.00000000000001
437,18.00000000001418
477,18.000000000000008
517,18.00000000001416
2,1, 1,21, 0, 5, 0.00,10.00,WinterDesignDay
8,-36.2
10,5382080.253782559
631,358308723.2657125
668,0.0
2,1, 1,21, 0, 5,10.00,20.00,WinterDesignDay
8,-36.2
10,5382080.253782559
631,358513551.5167605
668,0.0
2,1, 1,21, 0, 5,20.00,30.00,WinterDesignDay
8,-36.2
10,5382080.253782559
631,358683425.6568963
668,0.0
2,1, 1,21, 0, 5,30.00,40.00,WinterDesignDay
8,-36.2
10,5382080.253782559
631,358810629.95445647
668,0.0
2,1, 1,21, 0, 5,40.00,50.00,WinterDesignDay
8,-36.2
10,5382080.253782559
631,358918515.25704607
668,0.0
2,1, 1,21, 0, 5,50.00,60.00,WinterDesignDay
8,-36.2
10,5382080.253782559
631,359011181.45747306
668,0.0
2,1, 1,21, 0, 5, 0.00,60.00,WinterDesignDay
357,18.000000000000005
397,18.00000000000001
437,18.000000000000005
477,18.00000000000001
517,18.0
2,1, 1,21, 0, 6, 0.00,10.00,WinterDesignDay
8,-36.2
10,5382080.253782559
631,359075281.2247968
668,0.0
2,1, 1,21, 0, 6,10.00,20.00,WinterDesignDay
8,-36.2
10,5382080.253782559
631,359130633.95717957
668,0.0
2,1, 1,21, 0, 6,20.00,30.00,WinterDesignDay
8,-36.2
10,5382080.253782559
631,359181103.76408317
668,0.0
2,1, 1,21, 0, 6,30.00,40.00,WinterDesignDay
8,-36.2
10,5382080.253782559
631,359224789.60215929
668,0.0
2,1, 1,21, 0, 6,40.00,50.00,WinterDesignDay
8,-36.2
10,5382080.253782559
631,359261940.6707654
668,0.0
2,1, 1,21, 0, 6,50.00,60.00,WinterDesignDay
8,-36.2
10,5382080.253782559
631,359293385.859622
668,0.0
2,1, 1,21, 0, 6, 0.00,60.00,WinterDesignDay
357,18.000000000000005
397,18.000000000000015
437,18.000000000000005
477,18.000000000000008
517,18.000000000000005
2,1, 1,21, 0, 7, 0.00,10.00,WinterDesignDay
8,-36.2
10,7519231.658661578
631,357937627.7761769
668,0.0
2,1, 1,21, 0, 7,10.00,20.00,WinterDesignDay
8,-36.2
10,7519231.658661578
631,357754601.1385633
668,0.0
2,1, 1,21, 0, 7,20.00,30.00,WinterDesignDay
8,-36.2
10,7519231.658661578
631,357767099.083954
668,0.0
2,1, 1,21, 0, 7,30.00,40.00,WinterDesignDay
8,-36.2
10,7519231.658661578
631,357750405.3308934
668,0.0
2,1, 1,21, 0, 7,40.00,50.00,WinterDesignDay
8,-36.2
10,7519231.658661578
631,357734746.686921
668,0.0
2,1, 1,21, 0, 7,50.00,60.00,WinterDesignDay
8,-36.2
10,7519231.658661578
631,357721859.9084774
668,0.0
2,1, 1,21, 0, 7, 0.00,60.00,WinterDesignDay
357,18.000000000000005
397,18.000000000000015
437,18.0
477,18.000000000000015
517,18.000000000000005
2,1, 1,21, 0, 8, 0.00,10.00,WinterDesignDay
8,-36.2
10,12795148.344323943
631,408226711.077807
668,0.0
2,1, 1,21, 0, 8,10.00,20.00,WinterDesignDay
8,-36.2
10,12795148.344323943
631,320002684.9951315
668,0.0
2,1, 1,21, 0, 8,20.00,30.00,WinterDesignDay
8,-36.2
10,12795148.344323943
631,375967178.1280472
668,0.0
2,1, 1,21, 0, 8,30.00,40.00,WinterDesignDay
8,-36.2
10,12795148.344323943
631,363864154.14034709
668,0.0
2,1, 1,21, 0, 8,40.00,50.00,WinterDesignDay
8,-36.2
10,12795148.344323943
631,362673572.1655087
668,0.0
2,1, 1,21, 0, 8,50.00,60.00,WinterDesignDay
8,-36.2
10,12795148.344323943
631,362650542.33578088
668,0.0
2,1, 1,21, 0, 8, 0.00,60.00,WinterDesignDay
357,18.0
397,20.06447236168719
437,18.0
477,20.012107613295297
517,18.0
2,1, 1,21, 0, 9, 0.00,10.00,WinterDesignDay
8,-36.2
10,13559300.953019495
631,503533659.86563876
668,0.0
2,1, 1,21, 0, 9,10.00,20.00,WinterDesignDay
8,-36.2
10,13559300.953019495
631,283956044.9545203
668,0.0
2,1, 1,21, 0, 9,20.00,30.00,WinterDesignDay
8,-36.2
10,13559300.953019495
631,424181832.30836227
668,0.0
2,1, 1,21, 0, 9,30.00,40.00,WinterDesignDay
8,-36.2
10,13559300.953019495
631,389346460.5978346
668,0.0
2,1, 1,21, 0, 9,40.00,50.00,WinterDesignDay
8,-36.2
10,13559300.953019495
631,389338340.93062236
668,0.0
2,1, 1,21, 0, 9,50.00,60.00,WinterDesignDay
8,-36.2
10,13559300.953019495
631,388756977.75102177
668,0.0
2,1, 1,21, 0, 9, 0.00,60.00,WinterDesignDay
357,20.00133444822808
397,22.03612272635469
437,20.00158162701881
477,22.009053575128804
517,20.00159616749771
2,1, 1,21, 0,10, 0.00,10.00,WinterDesignDay
8,-36.2
10,24458135.386221179
631,460062943.5208504
668,0.0
2,1, 1,21, 0,10,10.00,20.00,WinterDesignDay
8,-36.2
10,24458135.386221179
631,334449220.30712237
668,0.0
2,1, 1,21, 0,10,20.00,30.00,WinterDesignDay
8,-36.2
10,24458135.386221179
631,415412456.68705525
668,0.0
2,1, 1,21, 0,10,30.00,40.00,WinterDesignDay
8,-36.2
10,24458135.386221179
631,395736075.75251117
668,0.0
2,1, 1,21, 0,10,40.00,50.00,WinterDesignDay
8,-36.2
10,24458135.386221179
631,395009483.64783379
668,0.0
2,1, 1,21, 0,10,50.00,60.00,WinterDesignDay
8,-36.2
10,24458135.386221179
631,394290431.38464418
668,0.0
2,1, 1,21, 0,10, 0.00,60.00,WinterDesignDay
357,22.00106809834622
397,21.999999999999998
437,22.001365425618674
477,22.0
517,22.001374966643725
2,1, 1,21, 0,11, 0.00,10.00,WinterDesignDay
8,-36.2
10,32568581.827064486
631,387366120.4123695
668,0.0
2,1, 1,21, 0,11,10.00,20.00,WinterDesignDay
8,-36.2
10,32568581.827064486
631,385453617.12271228
668,0.0
2,1, 1,21, 0,11,20.00,30.00,WinterDesignDay
8,-36.2
10,32568581.827064486
631,384999202.0142719
668,0.0
2,1, 1,21, 0,11,30.00,40.00,WinterDesignDay
8,-36.2