Program Version,EnergyPlus, Version 8.9.0-eba93e8e1b, YMD=2019.04.04 17:58
1,5,Environment Title[],Latitude[deg],Longitude[deg],Time Zone[],Elevation[m]
2,8,Day of Simulation[],Month[],Day of Month[],DST Indicator[1=yes 0=no],Hour[],StartMinute[],EndMinute[],DayType
3,5,Cumulative Day of Simulation[],Month[],Day of Month[],DST Indicator[1=yes 0=no],DayType  ! When Daily Report Variables Requested
4,2,Cumulative Days of Simulation[],Month[]  ! When Monthly Report Variables Requested
5,1,Cumulative Days of Simulation[] ! When Run Period Report Variables Requested
6,1,Calendar Year of Simulation[] ! When Annual Report Variables Requested
7,9,Environment,Site Outdoor Air Drybulb Temperature [C] !Monthly [Value,Min,Day,Hour,Minute,Max,Day,Hour,Minute]
8,1,Environment,Site Outdoor Air Wetbulb Temperature [C] !TimeStep
555,1,ALL_ST=CLASSROOM/LECTURE/TRAINING_FL=STORY 1_SCH=D,Zone Air Temperature [C] !Hourly
556,7,ALL_ST=CLASSROOM/LECTURE/TRAINING_FL=STORY 1_SCH=D,Zone Air Relative Humidity [%] !Daily [Value,Min,Hour,Minute,Max,Hour,Minute]
595,1,ALL_ST=CONF./MEET./MULTI-PURPOSE_FL=STORY 1_SCH=C,Zone Air Temperature [C] !Hourly
596,7,ALL_ST=CONF./MEET./MULTI-PURPOSE_FL=STORY 1_SCH=C,Zone Air Relative Humidity [%] !Daily [Value,Min,Hour,Minute,Max,Hour,Minute]
635,1,ALL_ST=CONVENTION CENTRE - AUDIENCE_FL=STORY 1_SCH=C,Zone Air Temperature [C] !Hourly
636,7,ALL_ST=CONVENTION CENTRE - AUDIENCE_FL=STORY 1_SCH=C,Zone Air Relative Humidity [%] !Daily [Value,Min,Hour,Minute,Max,Hour,Minute]
675,1,ALL_ST=CONVENTION CENTRE - EXHIBIT_FL=STORY 1_SCH=C,Zone Air Temperature [C] !Hourly
676,7,ALL_ST=CONVENTION CENTRE - EXHIBIT_FL=STORY 1_SCH=C,Zone Air Relative Humidity [%] !Daily [Value,Min,Hour,Minute,Max,Hour,Minute]
715,1,DU_BT=SPACE FUNCTION_ST=COURTHOUSE - CELL_FL=STORY 1_SCHH,Zone Air Temperature [C] !Hourly
716,7,DU_BT=SPACE FUNCTION_ST=COURTHOUSE - CELL_FL=STORY 1_SCHH,Zone Air Relative Humidity [%] !Daily [Value,Min,Hour,Minute,Max,Hour,Minute]
10,1,Electricity:Facility [J] !TimeStep
321,1,Gas:Facility [J] !TimeStep
End of Data Dictionary
1,FORT MCMURRAY AP ANN CLG .4% CONDNS DB=>MWB,  56.65,-111.22,  -7.00, 369.10
2,1, 7,21, 0, 1, 0.00,10.00,SummerDesignDay
8,14.218136923962174
10,29283211.336378885
321,1546274.6972829989
2,1, 7,21, 0, 1,10.00,20.00,SummerDesignDay
8,14.171982153293495
10,29181023.642732517
321,26548566.646722627
2,1, 7,21, 0, 1,20.00,30.00,SummerDesignDay
8,14.125744780286427
10,29089768.00051011
321,28146587.451861849
2,1, 7,21, 0, 1,30.00,40.00,SummerDesignDay
8,14.079436086331978
10,28989857.61902394
321,26761305.727254008
2,1, 7,21, 0, 1,40.00,50.00,SummerDesignDay
8,14.033050387896898
10,28889264.28326843
321,1759599.8506424032
2,1, 7,21, 0, 1,50.00,60.00,SummerDesignDay
8,13.986581233564835
10,28799161.141140175
321,27824644.666841825
2,1, 7,21, 0, 1, 0.00,60.00,SummerDesignDay
555,20.102603058176866
595,20.586019811209864
635,19.55721624154502
675,21.594160644815017
715,23.996009163087594
2,1, 7,21, 0, 2, 0.00,10.00,SummerDesignDay
8,13.95555882260429
10,28734483.98049341
321,28151392.89436952
2,1, 7,21, 0, 2,10.00,20.00,SummerDesignDay
8,13.924507755336454
10,28660315.950009787
321,25565282.05706191
2,1, 7,21, 0, 2,20.00,30.00,SummerDesignDay
8,13.893416042989206
10,28585652.183422109
321,2694744.5792878444
2,1, 7,21, 0, 2,30.00,40.00,SummerDesignDay
8,13.862289589689029
10,28523028.895852385
321,28085543.952204698
2,1, 7,21, 0, 2,40.00,50.00,SummerDesignDay
8,13.831134407608739
10,28459992.939980236
321,28156424.04715918
2,1, 7,21, 0, 2,50.00,60.00,SummerDesignDay
8,13.799938415548118
10,28387686.927113847
321,24346711.565693775
2,1, 7,21, 0, 2, 0.00,60.00,SummerDesignDay
555,19.50140870381971
595,20.054271646207558
635,18.974618388226309
675,21.098198707272809
715,23.996091523895449
2,1, 7,21, 0, 3, 0.00,10.00,SummerDesignDay
8,13.776521671948676
10,28327931.035986663
321,3910504.853228759
2,1, 7,21, 0, 3,10.00,20.00,SummerDesignDay
8,13.753085235778466
10,28280834.552850307
321,28087307.19599079
2,1, 7,21, 0, 3,20.00,30.00,SummerDesignDay
8,13.729636002354969
10,28231767.31674536
321,28161538.996763965
2,1, 7,21, 0, 3,30.00,40.00,SummerDesignDay
8,13.706147375533054
10,28174287.651071963
321,23108313.742390235
2,1, 7,21, 0, 3,40.00,50.00,SummerDesignDay
8,13.682651961920304
10,28116532.414846418
321,5144389.026750331
2,1, 7,21, 0, 3,50.00,60.00,SummerDesignDay
8,13.659136670643687
10,28072004.320271829
321,28089243.4680604
2,1, 7,21, 0, 3, 0.00,60.00,SummerDesignDay
555,19.091162189173958
595,19.67193400331229
635,18.56264955400393
675,20.730753168654478
715,23.996125080809635
2,1, 7,21, 0, 4, 0.00,10.00,SummerDesignDay
8,13.63560137410855
10,28023835.864771319
321,28166708.896897757
2,1, 7,21, 0, 4,10.00,20.00,SummerDesignDay
8,13.612040802606578
10,27967319.241790546
321,21855466.580023424
2,1, 7,21, 0, 4,20.00,30.00,SummerDesignDay
8,13.58846620506876
10,27911015.50465381
321,6391165.299323374
2,1, 7,21, 0, 4,30.00,40.00,SummerDesignDay
8,13.56487178447336
10,27867709.300985617
321,28091350.26081912
2,1, 7,21, 0, 4,40.00,50.00,SummerDesignDay
8,13.541257354069103
10,27819057.656318878
321,28171911.92362571
2,1, 7,21, 0, 4,50.00,60.00,SummerDesignDay
8,13.517617463812285
10,27762136.717898325
321,20593149.57242873
2,1, 7,21, 0, 4, 0.00,60.00,SummerDesignDay
555,18.769796948941424
595,19.376357923434303
635,18.229888781160058
675,20.45078822131536
715,23.99613864165258
2,1, 7,21, 0, 5, 0.00,10.00,SummerDesignDay
8,13.50185415824011
10,27719464.58425248
321,7646034.558397985
2,1, 7,21, 0, 5,10.00,20.00,SummerDesignDay
8,13.486076034032447
10,27738510.63628317
321,28328488.392803555
2,1, 7,21, 0, 5,20.00,30.00,SummerDesignDay
8,13.470289340350983
10,27655800.540645366
321,29122821.468030845
2,1, 7,21, 0, 5,30.00,40.00,SummerDesignDay
8,13.454493322631063
10,27613585.442408958
321,20433251.428907027
2,1, 7,21, 0, 5,40.00,50.00,SummerDesignDay
8,13.438688835118548
10,27571579.886629348
321,10390772.465952706
2,1, 7,21, 0, 5,50.00,60.00,SummerDesignDay
8,13.422888173889437
10,27544302.73182327
321,29914557.798803435
2,1, 7,21, 0, 5, 0.00,60.00,SummerDesignDay
555,18.499117219394056
595,19.129171041188294
635,18.010220564299244
675,20.22281886148443
715,23.996159389521979
2,1, 7,21, 0, 6, 0.00,10.00,SummerDesignDay
8,13.438688835118548
10,27566993.47961296
321,29756599.44415647
2,1, 7,21, 0, 6,10.00,20.00,SummerDesignDay
8,13.454493322631063
10,27583586.67572827
321,19380385.213203975
2,1, 7,21, 0, 6,20.00,30.00,SummerDesignDay
8,13.470289340350983
10,27601257.300383387
321,11231924.351633119
2,1, 7,21, 0, 6,30.00,40.00,SummerDesignDay
8,13.486076034032447
10,27634531.62132064
321,28905952.57574623
2,1, 7,21, 0, 6,40.00,50.00,SummerDesignDay
8,13.50185415824011
10,27706974.72002482
321,28641102.96631551
2,1, 7,21, 0, 6,50.00,60.00,SummerDesignDay
8,13.517617463812285
10,27726142.868455929
321,17039456.978689419
2,1, 7,21, 0, 6, 0.00,60.00,SummerDesignDay
555,18.402903355535476
595,19.014137702666916
635,17.999993930327617
675,20.0910287273772
715,23.996129714600074
2,1, 7,21, 0, 7, 0.00,10.00,SummerDesignDay
8,13.572736920571789
10,27770058.385756285
321,11419884.4777433
2,1, 7,21, 0, 7,10.00,20.00,SummerDesignDay
8,13.627748229152554
10,27875387.077677959
321,28101384.489177359
2,1, 7,21, 0, 7,20.00,30.00,SummerDesignDay
8,13.682651961920304
10,27970291.418484104
321,28192702.967713208
2,1, 7,21, 0, 7,30.00,40.00,SummerDesignDay
8,13.737448093244995
10,28060135.684435209
321,15528714.865587857
2,1, 7,21, 0, 7,40.00,50.00,SummerDesignDay
8,13.792137011831216
10,28152230.424620853
321,12671148.53471131
2,1, 7,21, 0, 7,50.00,60.00,SummerDesignDay
8,13.846719282840333
10,28257866.922161797
321,28104264.810575475
2,1, 7,21, 0, 7, 0.00,60.00,SummerDesignDay
555,18.667713137926659
595,19.18152254083837
635,18.227349446824478
675,20.15733619436195
715,23.99603165931067
2,1, 7,21, 0, 8, 0.00,10.00,SummerDesignDay
8,13.978831900527043
10,28463595.47297167
321,100333383.34695986
2,1, 7,21, 0, 8,10.00,20.00,SummerDesignDay
8,14.110321014287419
10,28708299.79522569
321,22273318.162290548
2,1, 7,21, 0, 8,20.00,30.00,SummerDesignDay
8,14.241191509616986
10,28916068.627473676
321,40881097.55515517
2,1, 7,21, 0, 8,30.00,40.00,SummerDesignDay
8,14.371447531304272
10,29136418.6531202
321,29749446.350824607
2,1, 7,21, 0, 8,40.00,50.00,SummerDesignDay
8,14.501093766564925
10,29345306.352529944
321,28205306.594585506
2,1, 7,21, 0, 8,50.00,60.00,SummerDesignDay
8,14.630134792273804
10,29535598.697565669
321,12438953.849738153
2,1, 7,21, 0, 8, 0.00,60.00,SummerDesignDay
555,20.13766653236084
595,20.1685860244081
635,20.079066268874685
675,20.534751708893127
715,23.996648928992973
2,1, 7,21, 0, 9, 0.00,10.00,SummerDesignDay
8,14.773641492809972
10,57708772.943780329
321,119353397.13217877
2,1, 7,21, 0, 9,10.00,20.00,SummerDesignDay
8,14.91640948124148
10,57772746.05356663
321,35885107.374705869
2,1, 7,21, 0, 9,20.00,30.00,SummerDesignDay
8,15.05843890714102
10,58020943.63278255
321,43364321.86214651
2,1, 7,21, 0, 9,30.00,40.00,SummerDesignDay
8,15.199735893563798
10,58256072.46994123
321,34041025.94341878
2,1, 7,21, 0, 9,40.00,50.00,SummerDesignDay
8,15.340306256439395
10,58620015.889329139
321,34011016.80249525
2,1, 7,21, 0, 9,50.00,60.00,SummerDesignDay
8,15.48015101768072
10,60255933.44813894
321,33958825.50395812
2,1, 7,21, 0, 9, 0.00,60.00,SummerDesignDay
555,22.34668103996771
595,22.56403428744233
635,22.304723685909889
675,23.05333636976982
715,23.997756086894627
2,1, 7,21, 0,10, 0.00,10.00,SummerDesignDay
8,15.60467292907716
10,100818510.5875776
321,36564300.22155743
2,1, 7,21, 0,10,10.00,20.00,SummerDesignDay
8,15.72862731650033
10,107572130.27884786
321,36461712.27933488
2,1, 7,21, 0,10,20.00,30.00,SummerDesignDay
8,15.852017409284228
10,112567296.3359487
321,36523285.931172769
2,1, 7,21, 0,10,30.00,40.00,SummerDesignDay
8,15.974848118364367
10,116411249.53136054
321,32239323.751903748
2,1, 7,21, 0,10,40.00,50.00,SummerDesignDay
8,16.097123145563505
10,117792701.02290443
321,31156763.438982667
2,1, 7,21, 0,10,50.00,60.00,SummerDesignDay
8,16.218846351168599
10,120066591.84388866
321,31130293.338592873
2,1, 7,21, 0,10, 0.00,60.00,SummerDesignDay
555,23.943564000440376
595,23.95006634925184
635,23.78830707538174
675,23.999325611524517
715,23.996756197080335
2,1, 7,21, 0,11, 0.00,10.00,SummerDesignDay
8,16.325793027093189
10,125746800.94550839
321,41399645.19651656
2,1, 7,21, 0,11,10.00,20.00,SummerDesignDay
8,16.432322158488288
10,127805942.79811259
321,42261367.267349008
2,1, 7,21, 0,11,20.00,30.00,SummerDesignDay
8,16.538424180249178
10,129251145.39177431
321,42249514.05700185
2,1, 7,21, 0,11,30.00,40.00,SummerDesignDay
8,16.644108396469087
10,130647687.44493418
321,42237480.48528503
2,1, 7,21, 0,11,40.00,50.00,SummerDesignDay
8,16.749376736593655
10,131967843.38454862
321,42225305.11467616
2,1, 7,21, 0,11,50.00,60.00,SummerDesignDay
8,16.854232613237156
10,133235111.0298002
321,47637513.5826965
2,1, 7,21, 0,11, 0.00,60.00,SummerDesignDay
555,23.997261231820816
595,23.998304918035815
635,23.99932754555472
675,23.99837852609535
715,23.995732485233217
2,1, 7,21, 0,12, 0.00,10.00,SummerDesignDay
8,16.92390823520069
10,134079589.38255365
321,52500597.813293728
2,1, 7,21, 0,12,10.00,20.00,SummerDesignDay
8,16.99340178950456
10,135001830.7641772
321,53097320.543750029
2,1, 7,21, 0,12,20.00,30.00,SummerDesignDay
8,17.06272006743463
10,135829276.06338699
321,53133886.84810469
2,1, 7,21, 0,12,30.00,40.00,SummerDesignDay
8,17.131853229172639
10,136649152.98089875
321,48726851.171883437
2,1, 7,21, 0,12,40.00,50.00,SummerDesignDay
8,17.200807172194087
10,137446520.7057935
321,44785181.76439376
2,1, 7,21, 0,12,50.00,60.00,SummerDesignDay
8,17.269582116758607
10,138237999.91351665
321,44769879.035495538
2,1, 7,21, 0,12, 0.00,60.00,SummerDesignDay
555,23.996909018138554
595,23.997650474191855
635,23.999173702710598
675,23.99782427639631
715,23.995854849115529
2,1, 7,21, 0,13, 0.00,10.00,SummerDesignDay
8,17.32447360221357
10,140904221.10888005
321,51411765.74004157
2,1, 7,21, 0,13,10.00,20.00,SummerDesignDay
8,17.379251291230806
10,142048303.1641385
321,76264172.81200813
2,1, 7,21, 0,13,20.00,30.00,SummerDesignDay
8,17.433921312061729
10,142780546.60578493
321,54165123.20398293
2,1, 7,21, 0,13,30.00,40.00,SummerDesignDay
8,17.488473222557489
10,143644745.22765423
321,51992396.215319458
2,1, 7,21, 0,13,40.00,50.00,SummerDesignDay
8,17.542913447755134
10,144545574.98341147
321,78407133.9967005
2,1, 7,21, 0,13,50.00,60.00,SummerDesignDay
8,17.59724609886134
10,145417889.93697743
321,52025956.55949635
2,1, 7,21, 0,13, 0.00,60.00,SummerDesignDay
555,23.997021381339314
595,23.996199356027764
635,23.998627516197418
675,23.9966477446621
715,23.99574357943929
2,1, 7,21, 0,14, 0.00,10.00,SummerDesignDay
8,17.6311450462694
10,145957559.44030754
321,51985981.01131813
2,1, 7,21, 0,14,10.00,20.00,SummerDesignDay
8,17.665000449016245
10,146527704.80324913
321,78407133.9967005
2,1, 7,21, 0,14,20.00,30.00,SummerDesignDay
8,17.698812743128934
10,147042939.6938041
321,52022236.67846581
2,1, 7,21, 0,14,30.00,40.00,SummerDesignDay
8,17.732582050940107
10,147482235.6184412
321,51979431.66211579
2,1, 7,21, 0,14,40.00,50.00,SummerDesignDay
8,17.766307345121004
10,147936172.22725518
321,78407133.9967005
2,1, 7,21, 0,14,50.00,60.00,SummerDesignDay
8,17.79999023167558
10,148373964.0381662
321,52018463.93885778
2,1, 7,21, 0,14, 0.00,60.00,SummerDesignDay
555,23.997009807969364
595,24.012875712850414
635,23.998237275576757
675,23.99574569148974
715,24.014947639805823
2,1, 7,21, 0,15, 0.00,10.00,SummerDesignDay
8,17.79999023167558
10,148391680.8197642
321,54589209.8451144
2,1, 7,21, 0,15,10.00,20.00,SummerDesignDay
8,17.79999023167558
10,148421644.07575677
321,75793244.77469805
2,1, 7,21, 0,15,20.00,30.00,SummerDesignDay
8,17.79999023167558
10,148424811.37211914
321,52014584.96005765
2,1, 7,21, 0,15,30.00,40.00,SummerDesignDay
8,17.79999023167558
10,148439443.1538827
321,59615363.583926457
2,1, 7,21, 0,15,40.00,50.00,SummerDesignDay
8,17.79999023167558
10,148462317.63198263
321,70771215.64786442
2,1, 7,21, 0,15,50.00,60.00,SummerDesignDay
8,17.79999023167558
10,148456885.42050258
321,52010261.48678843
2,1, 7,21, 0,15, 0.00,60.00,SummerDesignDay
555,23.99700186106801
595,24.11235323399737
635,23.998224347044148
675,23.995428487090824
715,24.11035702985292
2,1, 7,21, 0,16, 0.00,10.00,SummerDesignDay
8,17.759562446305357
10,147963061.9922136
321,64640891.60717088
2,1, 7,21, 0,16,10.00,20.00,SummerDesignDay
8,17.71907809634183
10,147480550.8788313
321,65755652.5250554
2,1, 7,21, 0,16,20.00,30.00,SummerDesignDay
8,17.67853788661001
10,146970257.93289108
321,52005447.92646419
2,1, 7,21, 0,16,30.00,40.00,SummerDesignDay
8,17.63791796367351
10,146474061.4845607
321,69655487.78822606
2,1, 7,21, 0,16,40.00,50.00,SummerDesignDay
8,17.59724609886134
10,145888726.9877348
321,60754524.09531932
2,1, 7,21, 0,16,50.00,60.00,SummerDesignDay
8,17.55650676726033
10,145162305.29275338
321,52000149.09972099
2,1, 7,21, 0,16, 0.00,60.00,SummerDesignDay
555,23.996998932214493
595,24.05081521916364
635,23.998222815732537
675,23.99525052288016
715,24.066069503395558
2,1, 7,21, 0,17, 0.00,10.00,SummerDesignDay
8,17.50209486331892
10,138298907.2572136
321,48416208.40584384
2,1, 7,21, 0,17,10.00,20.00,SummerDesignDay
8,17.447570789624618
10,137266951.56845168
321,58742455.13929174
2,1, 7,21, 0,17,20.00,30.00,SummerDesignDay
8,17.392929544208135
10,136405309.1394275
321,58824860.40494547
2,1, 7,21, 0,17,30.00,40.00,SummerDesignDay
8,17.33818013976614
10,135804149.92841188
321,53083902.22837918
2,1, 7,21, 0,17,40.00,50.00,SummerDesignDay
8,17.283317298559309
10,135179180.55995719
321,46736631.74834249
2,1, 7,21, 0,17,50.00,60.00,SummerDesignDay
8,17.22833552437677
10,134559478.1810317
321,46715588.03900076
2,1, 7,21, 0,17, 0.00,60.00,SummerDesignDay
555,23.99808735398914
595,23.997740478622946
635,23.99812543720734
675,23.994831018691334
715,23.995539852615186
2,1, 7,21, 0,18, 0.00,10.00,SummerDesignDay
8,17.159453019160176
10,125367025.82740817
321,36426200.69408578
2,1, 7,21, 0,18,10.00,20.00,SummerDesignDay
8,17.090391773337136
10,123885860.31849389
321,34843163.41579805
2,1, 7,21, 0,18,20.00,30.00,SummerDesignDay
8,17.021151077964786
10,123016206.91581969
321,34828422.87420448
2,1, 7,21, 0,18,30.00,40.00,SummerDesignDay
8,16.951729380464653
10,122150218.71916653
321,34813525.05376142
2,1, 7,21, 0,18,40.00,50.00,SummerDesignDay
8,16.882126503829249
10,121302592.31885319
321,36505985.9744932
2,1, 7,21, 0,18,50.00,60.00,SummerDesignDay
8,16.812341807494034
10,120459540.65295814
321,39084702.389392498
2,1, 7,21, 0,18, 0.00,60.00,SummerDesignDay
555,23.999210531810005
595,23.994683834676377
635,23.998310171840374
675,23.99532122598369
715,23.99540585574216
2,1, 7,21, 0,19, 0.00,10.00,SummerDesignDay
8,16.707321072823203
10,116287808.67346685
321,39378793.026939149
2,1, 7,21, 0,19,10.00,20.00,SummerDesignDay
8,16.601881826644556
10,114871181.27998267
321,39415706.17754181
2,1, 7,21, 0,19,20.00,30.00,SummerDesignDay
8,16.496030555252849
10,113527163.94642696
321,39420069.705480847
2,1, 7,21, 0,19,30.00,40.00,SummerDesignDay
8,16.389760181474104
10,112140799.5319247
321,39424425.483202118
2,1, 7,21, 0,19,40.00,50.00,SummerDesignDay
8,16.283067654262039
10,110745318.15050885
321,39428781.9761224
2,1, 7,21, 0,19,50.00,60.00,SummerDesignDay
8,16.17595057957811
10,109336932.50859806
321,39433139.051522869
2,1, 7,21, 0,19, 0.00,60.00,SummerDesignDay
555,23.999599650232086
595,23.996205854705818
635,23.998884510430256
675,23.996597629231336
715,23.995191467720987
2,1, 7,21, 0,20, 0.00,10.00,SummerDesignDay
8,16.097123145563505
10,94933392.06266676
321,36783123.86184594
2,1, 7,21, 0,20,10.00,20.00,SummerDesignDay
8,16.018070242471564
10,93471512.03861389
321,36517687.73996657
2,1, 7,21, 0,20,20.00,30.00,SummerDesignDay
8,15.938779752340516
10,92313681.13714984
321,33817416.44684498
2,1, 7,21, 0,20,30.00,40.00,SummerDesignDay
8,15.85926152575189
10,91124084.34420267
321,31164548.959199046
2,1, 7,21, 0,20,40.00,50.00,SummerDesignDay
8,15.779503718563929
10,89935214.29946448
321,31138374.975492017
2,1, 7,21, 0,20,50.00,60.00,SummerDesignDay
8,15.699515709672767
10,88741686.03079726
321,31110623.03399276
2,1, 7,21, 0,20, 0.00,60.00,SummerDesignDay
555,23.99926593872998
595,23.998330536187255
635,23.99954209046962
675,23.99848065339933
715,23.995149089016377
2,1, 7,21, 0,21, 0.00,10.00,SummerDesignDay
8,15.63389147320404
10,81788784.65526933
321,31082277.718759307
2,1, 7,21, 0,21,10.00,20.00,SummerDesignDay
8,15.56810827419793
10,80638114.82175815
321,31053364.676166085
2,1, 7,21, 0,21,20.00,30.00,SummerDesignDay
8,15.502170882753524
10,79569636.84711232
321,31023866.715593347
2,1, 7,21, 0,21,30.00,40.00,SummerDesignDay
8,15.436068032613852
10,78937762.91070427
321,35085697.32089815
2,1, 7,21, 0,21,40.00,50.00,SummerDesignDay
8,15.369804371206009
10,78295371.8282335
321,36472625.72505473
2,1, 7,21, 0,21,50.00,60.00,SummerDesignDay
8,15.303384603594449
10,77653424.56097548
321,36479309.59276761
2,1, 7,21, 0,21, 0.00,60.00,SummerDesignDay
555,23.999190563187029
595,23.99897104946989
635,23.93458101612734
675,23.999007303450683
715,23.995249780878657
2,1, 7,21, 0,22, 0.00,10.00,SummerDesignDay
8,15.236797685071274
10,50216928.19716215
321,31308742.720768326
2,1, 7,21, 0,22,10.00,20.00,SummerDesignDay
8,15.170047891787942
10,49568328.82535887
321,30550754.20021662
2,1, 7,21, 0,22,20.00,30.00,SummerDesignDay
8,15.103134826860483
10,49039245.07767346
321,28278695.22318955
2,1, 7,21, 0,22,30.00,40.00,SummerDesignDay
8,15.036063385178485
10,48506473.82076868
321,15495162.088902314
2,1, 7,21, 0,22,40.00,50.00,SummerDesignDay
8,14.968821767219835
10,47948403.43002792
321,17491654.784577207
2,1, 7,21, 0,22,50.00,60.00,SummerDesignDay
8,14.90141525878635
10,47421993.5846212
321,30520887.152721097
2,1, 7,21, 0,22, 0.00,60.00,SummerDesignDay
555,23.99954780914725
595,23.096233619408378
635,22.3242730860528
675,23.613924626402139
715,23.996440362580036
2,1, 7,21, 0,23, 0.00,10.00,SummerDesignDay
8,14.848873673278373
10,36904809.09565421
321,28506605.493044557
2,1, 7,21, 0,23,10.00,20.00,SummerDesignDay
8,14.796237168136719
10,36817176.9819176
321,28244535.005396055
2,1, 7,21, 0,23,20.00,30.00,SummerDesignDay
8,14.743494321455645
10,36706208.97646817
321,3807690.5678745137
2,1, 7,21, 0,23,30.00,40.00,SummerDesignDay
8,14.690649975253665
10,36610640.009892258
321,24342641.806014897
2,1, 7,21, 0,23,40.00,50.00,SummerDesignDay
8,14.637704281233117
10,36502223.78958156
321,28140487.35709213
2,1, 7,21, 0,23,50.00,60.00,SummerDesignDay
8,14.584656914839757
10,36402903.266755919
321,28244242.296768197
2,1, 7,21, 0,23, 0.00,60.00,SummerDesignDay
555,22.796584035314255
595,22.041042782456704
635,21.13608070983309
675,22.886235414956059
715,23.9966185124272
2,1, 7,21, 0,24, 0.00,10.00,SummerDesignDay
8,14.531507212058875
10,29920411.87326022
321,2396498.44311674
2,1, 7,21, 0,24,10.00,20.00,SummerDesignDay
8,14.47825496413355
10,29811013.206205749
321,25763429.14879854
2,1, 7,21, 0,24,20.00,30.00,SummerDesignDay
8,14.4249000133173
10,29712997.391909809
321,28200969.146140379
2,1, 7,21, 0,24,30.00,40.00,SummerDesignDay
8,14.371447531304272
10,29618431.649606758
321,27621211.777516746
2,1, 7,21, 0,24,40.00,50.00,SummerDesignDay
8,14.31788619902223
10,29478785.421243855
321,1802211.2987183636
2,1, 7,21, 0,24,50.00,60.00,SummerDesignDay
8,14.264220970176066
10,29376967.72441799
321,26880044.61148501
2,1, 7,21, 0,24, 0.00,60.00,SummerDesignDay
555,21.128777907091878
595,21.276412419871947
635,20.311789427635124
675,22.220116374937715
715,23.996799234187838
3,1, 7,21, 0,SummerDesignDay
556,53.771863216268439,46.517608320128868,19,60,64.01672440880258, 6,20
596,55.48901479008401,46.741847449961849,10,10,61.77029798176565, 6,30
636,53.90039677778123,45.82151508905774,10,60,65.43215314395401, 6,50
676,53.81563237366263,46.25424809513129,10,60,58.19532831609627,17,20
716,55.87323458444348,53.573350823317557,23,50,58.47739054571984,16,60
4,1, 7
7,22.2505,16.5,21, 5,60,28.9,21,14,60
1,FORT MCMURRAY AP ANN HTG 99.6% CONDNS DB,  56.65,-111.22,  -7.00, 369.10
2,1, 1,21, 0, 1, 0.00,10.00,WinterDesignDay
8,-36.2
10,26162634.897757368
321,995619170.6120575
2,1, 1,21, 0, 1,10.00,20.00,WinterDesignDay
8,-36.2
10,26162633.479213977
321,1000349633.0726383
2,1, 1,21, 0, 1,20.00,30.00,WinterDesignDay
8,-36.2
10,26162633.349481863
321,1013781816.770272
2,1, 1,21, 0, 1,30.00,40.00,WinterDesignDay
8,-36.2
10,26162633.219752499
321,1014142728.3876246
2,1, 1,21, 0, 1,40.00,50.00,WinterDesignDay
8,-36.2
10,26162633.21974779
321,1014448229.1784715
2,1, 1,21, 0, 1,50.00,60.00,WinterDesignDay
8,-36.2
10,26162633.090021567
321,1007097478.275883
2,1, 1,21, 0, 1, 0.00,60.00,WinterDesignDay
555,18.00000109840744
595,17.999978616611164
635,17.999996355804148
675,17.999999641826645
715,22.216955279046684
2,1, 1,21, 0, 2, 0.00,10.00,WinterDesignDay
8,-36.2
10,26162633.0900183
321,997629567.4196698
2,1, 1,21, 0, 2,10.00,20.00,WinterDesignDay
8,-36.2
10,26162632.441412014
321,1009546340.0966286
2,1, 1,21, 0, 2,20.00,30.00,WinterDesignDay
8,-36.2
10,26162632.441412014
321,1014965227.7964155
2,1, 1,21, 0, 2,30.00,40.00,WinterDesignDay
8,-36.2
10,26162632.441412014
321,1015109527.29087
2,1, 1,21, 0, 2,40.00,50.00,WinterDesignDay
8,-36.2
10,26162632.441412014
321,1015237413.0729085
2,1, 1,21, 0, 2,50.00,60.00,WinterDesignDay
8,-36.2
10,26162632.441412014
321,1000091930.5429461
2,1, 1,21, 0, 2, 0.00,60.00,WinterDesignDay
555,17.999988836001248
595,17.999979769233616
635,17.9999966163675
675,17.99997758102161
715,22.124842560633927
2,1, 1,21, 0, 3, 0.00,10.00,WinterDesignDay
8,-36.2
10,26162632.441412014
321,1000390511.2651855
2,1, 1,21, 0, 3,10.00,20.00,WinterDesignDay
8,-36.2
10,26162632.441412014
321,1015250638.0787554
2,1, 1,21, 0, 3,20.00,30.00,WinterDesignDay
8,-36.2
10,26162632.441412014
321,1015324247.571315
2,1, 1,21, 0, 3,30.00,40.00,WinterDesignDay
8,-36.2
10,26162632.441412014
321,1015411395.331642
2,1, 1,21, 0, 3,40.00,50.00,WinterDesignDay
8,-36.2
10,26162632.441412014
321,1009679453.4151152
2,1, 1,21, 0, 3,50.00,60.00,WinterDesignDay
8,-36.2
10,26162632.441412014
321,998338566.5641637
2,1, 1,21, 0, 3, 0.00,60.00,WinterDesignDay
555,17.999989453173666
595,17.999981615911009
635,17.999996686988636
675,17.999980316118927
715,22.092036859163345
2,1, 1,21, 0, 4, 0.00,10.00,WinterDesignDay
8,-36.2
10,26162632.441412014
321,1008240232.6317202
2,1, 1,21, 0, 4,10.00,20.00,WinterDesignDay
8,-36.2
10,26162632.441412014
321,1015404154.9110465
2,1, 1,21, 0, 4,20.00,30.00,WinterDesignDay
8,-36.2
10,26162632.441412014
321,1015474427.3645027
2,1, 1,21, 0, 4,30.00,40.00,WinterDesignDay
8,-36.2
10,26162632.441412014
321,1015544514.1209042
2,1, 1,21, 0, 4,40.00,50.00,WinterDesignDay
8,-36.2
10,26162632.441412014
321,1002167409.2762718
2,1, 1,21, 0, 4,50.00,60.00,WinterDesignDay
8,-36.2
10,26162632.441412014
321,998815463.5499656
2,1, 1,21, 0, 4, 0.00,60.00,WinterDesignDay
555,17.99998958353827
595,17.99998207833477
635,17.999996711826048
675,17.99998498375891
715,22.079773093831038
2,1, 1,21, 0, 5, 0.00,10.00,WinterDesignDay
8,-36.2
10,26162632.441412014
321,1015434080.4371622
2,1, 1,21, 0, 5,10.00,20.00,WinterDesignDay
8,-36.2
10,26162632.441412014
321,1015480555.0543611
2,1, 1,21, 0, 5,20.00,30.00,WinterDesignDay
8,-36.2
10,26162632.441412014
321,1015547431.3197101
2,1, 1,21, 0, 5,30.00,40.00,WinterDesignDay
8,-36.2
10,26162632.441412014
321,1011589672.9210023
2,1, 1,21, 0, 5,40.00,50.00,WinterDesignDay
8,-36.2
10,26162632.441412014
321,998506143.6416061
2,1, 1,21, 0, 5,50.00,60.00,WinterDesignDay
8,-36.2
10,26162632.441412014
321,1006503551.792413
2,1, 1,21, 0, 5, 0.00,60.00,WinterDesignDay
555,17.999989628055088
595,17.999982205678508
635,17.999996721837836
675,17.999987291979953
715,22.075028606818678
2,1, 1,21, 0, 6, 0.00,10.00,WinterDesignDay
8,-36.2
10,26162632.441412014
321,1015481725.8620479
2,1, 1,21, 0, 6,10.00,20.00,WinterDesignDay
8,-36.2
10,26162632.441412014
321,1015539629.4043161
2,1, 1,21, 0, 6,20.00,30.00,WinterDesignDay
8,-36.2
10,26162632.441412014
321,1015604492.1465597
2,1, 1,21, 0, 6,30.00,40.00,WinterDesignDay
8,-36.2
10,26162632.441412014
321,1004035686.4919852
2,1, 1,21, 0, 6,40.00,50.00,WinterDesignDay
8,-36.2
10,26162632.441412014
321,998258442.6528078
2,1, 1,21, 0, 6,50.00,60.00,WinterDesignDay
8,-36.2
10,26162632.441412014
321,1014310688.1075857
2,1, 1,21, 0, 6, 0.00,60.00,WinterDesignDay
555,17.999989653538749
595,17.999982253237595
635,17.999996727925656
675,17.999988446997106
715,22.07251579010312
2,1, 1,21, 0, 7, 0.00,10.00,WinterDesignDay
8,-36.2
10,26162632.441412014
321,1015523368.897266
2,1, 1,21, 0, 7,10.00,20.00,WinterDesignDay
8,-36.2
10,26162632.441412014
321,1015585863.7481496
2,1, 1,21, 0, 7,20.00,30.00,WinterDesignDay
8,-36.2
10,26162632.441412014
321,1013412193.3369154
2,1, 1,21, 0, 7,30.00,40.00,WinterDesignDay
8,-36.2
10,26162632.441412014
321,998601210.9708961
2,1, 1,21, 0, 7,40.00,50.00,WinterDesignDay
8,-36.2
10,26162632.441412014
321,1004714141.4496958
2,1, 1,21, 0, 7,50.00,60.00,WinterDesignDay
8,-36.2
10,26162632.441412014
321,1015509776.7866153
2,1, 1,21, 0, 7, 0.00,60.00,WinterDesignDay
555,17.99998966850272
595,17.999982274921768
635,17.999996731594487
675,17.999989025968064
715,22.071067624916564
2,1, 1,21, 0, 8, 0.00,10.00,WinterDesignDay
8,-36.2
10,26178446.079594986
321,1164231289.3209785
2,1, 1,21, 0, 8,10.00,20.00,WinterDesignDay
8,-36.2
10,26162633.597499085
321,1067380958.2844
2,1, 1,21, 0, 8,20.00,30.00,WinterDesignDay
8,-36.2
10,26162632.441412014
321,1069493648.5478802
2,1, 1,21, 0, 8,30.00,40.00,WinterDesignDay
8,-36.2
10,26162632.441412014
321,1048337704.7705286
2,1, 1,21, 0, 8,40.00,50.00,WinterDesignDay
8,-36.2
10,26162632.441412014
321,1059612405.0572201
2,1, 1,21, 0, 8,50.00,60.00,WinterDesignDay
8,-36.2
10,26162632.441412014
321,1061525063.8633444
2,1, 1,21, 0, 8, 0.00,60.00,WinterDesignDay
555,19.97173574672441
595,19.95084564222551
635,19.98105144997843
675,19.95177066281214
715,22.090942069968354
2,1, 1,21, 0, 9, 0.00,10.00,WinterDesignDay
8,-36.2
10,53946215.44091422
321,1176074472.8259817
2,1, 1,21, 0, 9,10.00,20.00,WinterDesignDay
8,-36.2
10,53954121.282387997
321,1088059225.4693132
2,1, 1,21, 0, 9,20.00,30.00,WinterDesignDay
8,-36.2
10,53930402.035277787
321,1099728989.5581432
2,1, 1,21, 0, 9,30.00,40.00,WinterDesignDay
8,-36.2
10,53930405.130266938
321,1084049900.3854798
2,1, 1,21, 0, 9,40.00,50.00,WinterDesignDay
8,-36.2
10,53930408.047275628
321,1078183524.9723547
2,1, 1,21, 0, 9,50.00,60.00,WinterDesignDay
8,-36.2
10,53930409.55792606
321,1074581496.8070307
2,1, 1,21, 0, 9, 0.00,60.00,WinterDesignDay
555,21.97056185935583
595,21.950303412583727
635,21.97915771237048
675,21.960533477422847
715,22.226835599961296
2,1, 1,21, 0,10, 0.00,10.00,WinterDesignDay
8,-36.2
10,88229144.32622832
321,1033128876.11994
2,1, 1,21, 0,10,10.00,20.00,WinterDesignDay
8,-36.2
10,88229159.1346271
321,1023818867.436849
2,1, 1,21, 0,10,20.00,30.00,WinterDesignDay
8,-36.2
10,88276555.77064848
321,1023108832.2120895
2,1, 1,21, 0,10,30.00,40.00,WinterDesignDay
8,-36.2
10,88229185.12424277
321,1021237054.9352988
2,1, 1,21, 0,10,40.00,50.00,WinterDesignDay
8,-36.2
10,88276555.77064848
321,1020173235.8246557
2,1, 1,21, 0,10,50.00,60.00,WinterDesignDay
8,-36.2
10,88276555.77064848
321,1019142047.9671584
2,1, 1,21, 0,10, 0.00,60.00,WinterDesignDay
555,21.999999922224874
595,21.999999804911416
635,21.999999761479289
675,21.99999969634123
715,22.510406500099255
2,1, 1,21, 0,11, 0.00,10.00,WinterDesignDay
8,-36.2
10,88276555.77064848
321,1009615878.287602
2,1, 1,21, 0,11,10.00,20.00,WinterDesignDay
8,-36.2
10,88276555.77064848
321,1019255500.2810205
2,1, 1,21, 0,11,20.00,30.00,WinterDesignDay
8,-36.2
10,88276555.77064848
321,1021438805.0819653
2,1, 1,21, 0,11,30.00,40.00,WinterDesignDay
8,-36.2
10,88276555.77064848
321,1011091293.0201668
2,1, 1,21, 0,11,40.00,50.00,WinterDesignDay
8,-36.2
10,88276555.77064848
321,1006196897.8459857
2,1, 1,21, 0,11,50.00,60.00,WinterDesignDay
8,-36.2
10,88276555.77064848
321,1005881932.9394463