Program Version,EnergyPlus, Version 8.9.0-eba93e8e1b, YMD=2019.03.20 17:54
1,5,Environment Title[],Latitude[deg],Longitude[deg],Time Zone[],Elevation[m]
2,8,Day of Simulation[],Month[],Day of Month[],DST Indicator[1=yes 0=no],Hour[],StartMinute[],EndMinute[],DayType
3,5,Cumulative Day of Simulation[],Month[],Day of Month[],DST Indicator[1=yes 0=no],DayType  ! When Daily Report Variables Requested
4,2,Cumulative Days of Simulation[],Month[]  ! When Monthly Report Variables Requested
5,1,Cumulative Days of Simulation[] ! When Run Period Report Variables Requested
6,1,Calendar Year of Simulation[] ! When Annual Report Variables Requested
7,9,Environment,Site Outdoor Air Drybulb Temperature [C] !Monthly [Value,Min,Day,Hour,Minute,Max,Day,Hour,Minute]
8,1,Environment,Site Outdoor Air Wetbulb Temperature [C] !TimeStep
914,1,DINING - BAR LOUNGE/LEISURE-SPACE FUNCTION ZN,Zone Air Temperature [C] !Hourly
915,7,DINING - BAR LOUNGE/LEISURE-SPACE FUNCTION ZN,Zone Air Relative Humidity [%] !Daily [Value,Min,Hour,Minute,Max,Hour,Minute]
954,1,DINING - FAMILY SPACE-SPACE FUNCTION ZN,Zone Air Temperature [C] !Hourly
955,7,DINING - FAMILY SPACE-SPACE FUNCTION ZN,Zone Air Relative Humidity [%] !Daily [Value,Min,Hour,Minute,Max,Hour,Minute]
994,1,DINING - OTHER-SPACE FUNCTION ZN,Zone Air Temperature [C] !Hourly
995,7,DINING - OTHER-SPACE FUNCTION ZN,Zone Air Relative Humidity [%] !Daily [Value,Min,Hour,Minute,Max,Hour,Minute]
1034,1,DORMITORY - LIVING QUARTERS-SPACE FUNCTION ZN,Zone Air Temperature [C] !Hourly
1035,7,DORMITORY - LIVING QUARTERS-SPACE FUNCTION ZN,Zone Air Relative Humidity [%] !Daily [Value,Min,Hour,Minute,Max,Hour,Minute]
1074,1,DRESS./FITT. - PERFORMANCE ARTS-SPACE FUNCTION ZN,Zone Air Temperature [C] !Hourly
1075,7,DRESS./FITT. - PERFORMANCE ARTS-SPACE FUNCTION ZN,Zone Air Relative Humidity [%] !Daily [Value,Min,Hour,Minute,Max,Hour,Minute]
1114,1,DWELLING UNIT(S)-SPACE FUNCTION ZN,Zone Air Temperature [C] !Hourly
1115,7,DWELLING UNIT(S)-SPACE FUNCTION ZN,Zone Air Relative Humidity [%] !Daily [Value,Min,Hour,Minute,Max,Hour,Minute]
1154,1,ELECTRICAL/MECHANICAL-SCH-A-SPACE FUNCTION ZN,Zone Air Temperature [C] !Hourly
1155,7,ELECTRICAL/MECHANICAL-SCH-A-SPACE FUNCTION ZN,Zone Air Relative Humidity [%] !Daily [Value,Min,Hour,Minute,Max,Hour,Minute]
1194,1,ELECTRICAL/MECHANICAL-SCH-B-SPACE FUNCTION ZN,Zone Air Temperature [C] !Hourly
1195,7,ELECTRICAL/MECHANICAL-SCH-B-SPACE FUNCTION ZN,Zone Air Relative Humidity [%] !Daily [Value,Min,Hour,Minute,Max,Hour,Minute]
1234,1,ELECTRICAL/MECHANICAL-SCH-C-SPACE FUNCTION ZN,Zone Air Temperature [C] !Hourly
1235,7,ELECTRICAL/MECHANICAL-SCH-C-SPACE FUNCTION ZN,Zone Air Relative Humidity [%] !Daily [Value,Min,Hour,Minute,Max,Hour,Minute]
1274,1,ELECTRICAL/MECHANICAL-SCH-D-SPACE FUNCTION ZN,Zone Air Temperature [C] !Hourly
1275,7,ELECTRICAL/MECHANICAL-SCH-D-SPACE FUNCTION ZN,Zone Air Relative Humidity [%] !Daily [Value,Min,Hour,Minute,Max,Hour,Minute]
1314,1,ELECTRICAL/MECHANICAL-SCH-E-SPACE FUNCTION ZN,Zone Air Temperature [C] !Hourly
1315,7,ELECTRICAL/MECHANICAL-SCH-E-SPACE FUNCTION ZN,Zone Air Relative Humidity [%] !Daily [Value,Min,Hour,Minute,Max,Hour,Minute]
1354,1,ELECTRICAL/MECHANICAL-SCH-F-SPACE FUNCTION ZN,Zone Air Temperature [C] !Hourly
1355,7,ELECTRICAL/MECHANICAL-SCH-F-SPACE FUNCTION ZN,Zone Air Relative Humidity [%] !Daily [Value,Min,Hour,Minute,Max,Hour,Minute]
1394,1,ELECTRICAL/MECHANICAL-SCH-G-SPACE FUNCTION ZN,Zone Air Temperature [C] !Hourly
1395,7,ELECTRICAL/MECHANICAL-SCH-G-SPACE FUNCTION ZN,Zone Air Relative Humidity [%] !Daily [Value,Min,Hour,Minute,Max,Hour,Minute]
1434,1,ELECTRICAL/MECHANICAL-SCH-H-SPACE FUNCTION ZN,Zone Air Temperature [C] !Hourly
1435,7,ELECTRICAL/MECHANICAL-SCH-H-SPACE FUNCTION ZN,Zone Air Relative Humidity [%] !Daily [Value,Min,Hour,Minute,Max,Hour,Minute]
1474,1,ELECTRICAL/MECHANICAL-SCH-I-SPACE FUNCTION ZN,Zone Air Temperature [C] !Hourly
1475,7,ELECTRICAL/MECHANICAL-SCH-I-SPACE FUNCTION ZN,Zone Air Relative Humidity [%] !Daily [Value,Min,Hour,Minute,Max,Hour,Minute]
1514,1,FIRE STATION - ENGINE ROOM-SPACE FUNCTION ZN,Zone Air Temperature [C] !Hourly
1515,7,FIRE STATION - ENGINE ROOM-SPACE FUNCTION ZN,Zone Air Relative Humidity [%] !Daily [Value,Min,Hour,Minute,Max,Hour,Minute]
1554,1,FIRE STATION - QUARTERS-SPACE FUNCTION ZN,Zone Air Temperature [C] !Hourly
1555,7,FIRE STATION - QUARTERS-SPACE FUNCTION ZN,Zone Air Relative Humidity [%] !Daily [Value,Min,Hour,Minute,Max,Hour,Minute]
1594,1,FOOD PREPARATION - VENTED-SPACE FUNCTION ZN,Zone Air Temperature [C] !Hourly
1595,7,FOOD PREPARATION - VENTED-SPACE FUNCTION ZN,Zone Air Relative Humidity [%] !Daily [Value,Min,Hour,Minute,Max,Hour,Minute]
1634,1,FOOD PREPARATION-SPACE FUNCTION ZN,Zone Air Temperature [C] !Hourly
1635,7,FOOD PREPARATION-SPACE FUNCTION ZN,Zone Air Relative Humidity [%] !Daily [Value,Min,Hour,Minute,Max,Hour,Minute]
1674,1,GYM - AUDIENCE-SPACE FUNCTION ZN,Zone Air Temperature [C] !Hourly
1675,7,GYM - AUDIENCE-SPACE FUNCTION ZN,Zone Air Relative Humidity [%] !Daily [Value,Min,Hour,Minute,Max,Hour,Minute]
10,1,Electricity:Facility [J] !TimeStep
1825,1,DistrictCooling:Facility [J] !TimeStep
1788,1,DistrictHeating:Facility [J] !TimeStep
End of Data Dictionary
1,FORT MCMURRAY AP ANN CLG .4% CONDNS DB=>MWB,  56.65,-111.22,  -7.00, 369.10
2,1, 7,21, 0, 1, 0.00,10.00,SummerDesignDay
8,14.218136923962174
10,154502651.6587011
1788,457993.7425472804
1825,91801310.45122577
2,1, 7,21, 0, 1,10.00,20.00,SummerDesignDay
8,14.171982153293495
10,154502651.6587011
1788,3287260.4395221367
1825,89027035.56360635
2,1, 7,21, 0, 1,20.00,30.00,SummerDesignDay
8,14.125744780286427
10,154502651.6587011
1788,5958486.313901226
1825,86656161.14212466
2,1, 7,21, 0, 1,30.00,40.00,SummerDesignDay
8,14.079436086331978
10,154502651.6587011
1788,9970387.92283412
1825,84320799.01165909
2,1, 7,21, 0, 1,40.00,50.00,SummerDesignDay
8,14.033050387896898
10,154502651.6587011
1788,12803213.644330148
1825,82026341.34776369
2,1, 7,21, 0, 1,50.00,60.00,SummerDesignDay
8,13.986581233564835
10,154502651.6587011
1788,17337291.89660225
1825,79759733.8977145
2,1, 7,21, 0, 1, 0.00,60.00,SummerDesignDay
914,22.21820729057666
954,22.089390294095826
994,22.01826039513436
1034,24.000000000000005
1074,23.88393449983357
1114,24.0
1154,24.28967598082497
1194,24.000000000000005
1234,24.010585089739995
1274,24.20744753640012
1314,23.98146040455923
1354,24.0
1394,24.00000000000001
1434,24.0
1474,25.224868325140723
1514,23.999999999999998
1554,23.99999999999999
1594,24.000000000000015
1634,24.000000000000015
1674,22.009481309074006
2,1, 7,21, 0, 2, 0.00,10.00,SummerDesignDay
8,13.95555882260429
10,90406310.09973537
1788,38455954.71457591
1825,41850489.810524817
2,1, 7,21, 0, 2,10.00,20.00,SummerDesignDay
8,13.924507755336454
10,90406310.09973537
1788,42710896.994699548
1825,40195090.3528217
2,1, 7,21, 0, 2,20.00,30.00,SummerDesignDay
8,13.893416042989206
10,90406310.09973537
1788,45520872.8831263
1825,38934860.47239847
2,1, 7,21, 0, 2,30.00,40.00,SummerDesignDay
8,13.862289589689029
10,90406310.09973537
1788,48231839.63385446
1825,37814682.638966727
2,1, 7,21, 0, 2,40.00,50.00,SummerDesignDay
8,13.831134407608739
10,90406310.09973537
1788,50842887.91575057
1825,36711260.06303574
2,1, 7,21, 0, 2,50.00,60.00,SummerDesignDay
8,13.799938415548118
10,90406310.09973537
1788,53387716.60450661
1825,35625558.693895827
2,1, 7,21, 0, 2, 0.00,60.00,SummerDesignDay
914,22.000012672723714
954,22.000000179793746
994,22.00000000298267
1034,24.0
1074,23.569647535017837
1114,24.000000000000015
1154,23.893463707199456
1194,25.133928693579369
1234,23.643440694094527
1274,24.087791522095917
1314,23.838540405262454
1354,24.00000000000001
1394,24.000000000000005
1434,24.000000000000019
1474,25.534697448430618
1514,24.00000000000001
1554,23.983596192589933
1594,24.053906676088788
1634,24.190529627725487
1674,22.000000002348373
2,1, 7,21, 0, 3, 0.00,10.00,SummerDesignDay
8,13.776521671948676
10,45151686.73272832
1788,0.0
1825,34668995.332214858
2,1, 7,21, 0, 3,10.00,20.00,SummerDesignDay
8,13.753085235778466
10,45151686.73272832
1788,0.0
1825,33684493.07790229
2,1, 7,21, 0, 3,20.00,30.00,SummerDesignDay
8,13.729636002354969
10,45151686.73272832
1788,0.0
1825,32659868.07988908
2,1, 7,21, 0, 3,30.00,40.00,SummerDesignDay
8,13.706147375533054
10,45151686.73272832
1788,0.0
1825,31606734.767146294
2,1, 7,21, 0, 3,40.00,50.00,SummerDesignDay
8,13.682651961920304
10,45151686.73272832
1788,0.0
1825,30541140.527327617
2,1, 7,21, 0, 3,50.00,60.00,SummerDesignDay
8,13.659136670643687
10,45151686.73272832
1788,0.0
1825,29482311.60403364
2,1, 7,21, 0, 3, 0.00,60.00,SummerDesignDay
914,20.427282191835187
954,20.462798084741278
994,20.48280149753221
1034,24.0
1074,23.320672474718426
1114,24.0
1154,23.566176322804937
1194,25.189150963209497
1234,23.331023950692257
1274,23.98724747210333
1314,23.720640644502429
1354,24.00000000000001
1394,24.000000000000005
1434,24.000000000000005
1474,25.31372753419619
1514,24.00000000000001
1554,23.878263672544035
1594,23.296916811950696
1634,23.49145347580458
1674,20.796533186790684
2,1, 7,21, 0, 4, 0.00,10.00,SummerDesignDay
8,13.63560137410855
10,43542950.12088008
1788,0.0
1825,27785460.798197327
2,1, 7,21, 0, 4,10.00,20.00,SummerDesignDay
8,13.612040802606578
10,43542950.12088008
1788,0.0
1825,26674470.06610825
2,1, 7,21, 0, 4,20.00,30.00,SummerDesignDay
8,13.58846620506876
10,43542950.12088008
1788,0.0
1825,25596765.102583749
2,1, 7,21, 0, 4,30.00,40.00,SummerDesignDay
8,13.56487178447336
10,43542950.12088008
1788,0.0
1825,24524135.938251977
2,1, 7,21, 0, 4,40.00,50.00,SummerDesignDay
8,13.541257354069103
10,43542950.12088008
1788,0.0
1825,23457756.437815168
2,1, 7,21, 0, 4,50.00,60.00,SummerDesignDay
8,13.517617463812285
10,43542950.12088008
1788,0.0
1825,22504587.580657975
2,1, 7,21, 0, 4, 0.00,60.00,SummerDesignDay
914,19.543722114404237
954,19.56892312244287
994,19.600476547217459
1034,24.000000000000005
1074,23.044822845219487
1114,24.000000000000019
1154,23.19685897634093
1194,24.81574516120112
1234,22.97514502060264
1274,23.878843457348635
1314,23.577468031074017
1354,24.0
1394,24.00000000000001
1434,24.000000000000015
1474,25.152541190490756
1514,23.999393623539388
1554,23.71955929475152
1594,22.773265092176854
1634,22.959147422632595
1674,20.271911654283547
2,1, 7,21, 0, 5, 0.00,10.00,SummerDesignDay
8,13.50185415824011
10,43542950.12088008
1788,0.0
1825,22041770.553541747
2,1, 7,21, 0, 5,10.00,20.00,SummerDesignDay
8,13.486076034032447
10,43542950.12088008
1788,0.0
1825,22044588.427763463
2,1, 7,21, 0, 5,20.00,30.00,SummerDesignDay
8,13.470289340350983
10,43542950.12088008
1788,0.0
1825,22044579.189631415
2,1, 7,21, 0, 5,30.00,40.00,SummerDesignDay
8,13.454493322631063
10,43542950.12088008
1788,0.0
1825,22143583.94098053
2,1, 7,21, 0, 5,40.00,50.00,SummerDesignDay
8,13.438688835118548
10,43542950.12088008
1788,0.0
1825,22320593.85720446
2,1, 7,21, 0, 5,50.00,60.00,SummerDesignDay
8,13.422888173889437
10,43542950.12088008
1788,0.0
1825,22519836.54576135
2,1, 7,21, 0, 5, 0.00,60.00,SummerDesignDay
914,19.2333836911902
954,19.402310875289463
994,19.358667100640639
1034,23.930930052730248
1074,22.894694002773929
1114,24.000000000000015
1154,22.955412020871774
1194,24.66908371642582
1234,22.744648743051554
1274,23.782938977884795
1314,23.44175379316972
1354,24.000000000000015
1394,24.0
1434,24.000000000000026
1474,25.021332709730137
1514,23.939462231335559
1554,23.638091940592458
1594,22.54804765976357
1634,22.728181964024789
1674,20.031827988017299
2,1, 7,21, 0, 6, 0.00,10.00,SummerDesignDay
8,13.438688835118548
10,43542950.12088008
1788,0.0
1825,22899773.9054417
2,1, 7,21, 0, 6,10.00,20.00,SummerDesignDay
8,13.454493322631063
10,43542950.12088008
1788,0.0
1825,23282651.547464506
2,1, 7,21, 0, 6,20.00,30.00,SummerDesignDay
8,13.470289340350983
10,43542950.12088008
1788,0.0
1825,23666136.96688252
2,1, 7,21, 0, 6,30.00,40.00,SummerDesignDay
8,13.486076034032447
10,43542950.12088008
1788,0.0
1825,24047869.74194813
2,1, 7,21, 0, 6,40.00,50.00,SummerDesignDay
8,13.50185415824011
10,43542950.12088008
1788,0.0
1825,24424671.498513346
2,1, 7,21, 0, 6,50.00,60.00,SummerDesignDay
8,13.517617463812285
10,43542950.12088008
1788,0.0
1825,24794190.0793984
2,1, 7,21, 0, 6, 0.00,60.00,SummerDesignDay
914,19.256942216526857
954,20.048400637200243
994,19.517207305619566
1034,23.775376057075247
1074,23.182669476551657
1114,24.0
1154,23.04965306299451
1194,24.57941854412529
1234,22.855398082279906
1274,23.71984303119488
1314,23.33413440840687
1354,24.0
1394,24.000000000000005
1434,24.000000000000005
1474,24.942349045210447
1514,23.880712210788614
1554,23.666557524485638
1594,22.42347206147576
1634,22.647991795878779
1674,19.952186181665664
2,1, 7,21, 0, 7, 0.00,10.00,SummerDesignDay
8,13.572736920571789
10,51264135.861949499
1788,0.0
1825,28153837.87100862
2,1, 7,21, 0, 7,10.00,20.00,SummerDesignDay
8,13.627748229152554
10,51264135.861949499
1788,0.0
1825,28961636.800198437
2,1, 7,21, 0, 7,20.00,30.00,SummerDesignDay
8,13.682651961920304
10,51264135.861949499
1788,0.0
1825,29580823.09763103
2,1, 7,21, 0, 7,30.00,40.00,SummerDesignDay
8,13.737448093244995
10,51264135.861949499
1788,0.0
1825,30186793.8815559
2,1, 7,21, 0, 7,40.00,50.00,SummerDesignDay
8,13.792137011831216
10,51264135.861949499
1788,0.0
1825,31562399.46828795
2,1, 7,21, 0, 7,50.00,60.00,SummerDesignDay
8,13.846719282840333
10,51264135.861949499
1788,0.0
1825,32260085.69471243
2,1, 7,21, 0, 7, 0.00,60.00,SummerDesignDay
914,19.7353321967655
954,21.079172042072178
994,19.898492004764774
1034,23.772986103537844
1074,23.665554476463357
1114,24.00000000000001
1154,23.4854763420236
1194,24.55233317324068
1234,23.32401610505924
1274,23.722218087805819
1314,23.287970427668669
1354,23.999999999999998
1394,24.00000000000001
1434,24.000000000000058
1474,24.931569586212619
1514,23.962409275240949
1554,23.70756297733522
1594,22.47168410356862
1634,22.615532881269219
1674,20.166397774079316
2,1, 7,21, 0, 8, 0.00,10.00,SummerDesignDay
8,13.978831900527043
10,75490809.23742515
1788,0.0
1825,42037822.78512906
2,1, 7,21, 0, 8,10.00,20.00,SummerDesignDay
8,14.110321014287419
10,75490809.23742515
1788,0.0
1825,54297579.41950015
2,1, 7,21, 0, 8,20.00,30.00,SummerDesignDay
8,14.241191509616986
10,75490809.23742515
1788,0.0
1825,60956535.619105938
2,1, 7,21, 0, 8,30.00,40.00,SummerDesignDay
8,14.371447531304272
10,75490809.23742515
1788,0.0
1825,69605090.80980592
2,1, 7,21, 0, 8,40.00,50.00,SummerDesignDay
8,14.501093766564925
10,75490809.23742515
1788,0.0
1825,76676083.26637481
2,1, 7,21, 0, 8,50.00,60.00,SummerDesignDay
8,14.630134792273804
10,75490809.23742515
1788,0.0
1825,83210438.16191708
2,1, 7,21, 0, 8, 0.00,60.00,SummerDesignDay
914,20.93519944515542
954,22.607129381408524
994,21.02960148794612
1034,23.97293279545382
1074,23.998539534605326
1114,24.0
1154,23.999206406696769
1194,24.620541682531657
1234,23.96647230105137
1274,23.816209896722787
1314,23.344870523723715
1354,24.000000000000005
1394,24.000000000000005
1434,24.00000000000003
1474,25.023764858028103
1514,23.999999081007656
1554,23.963437879664668
1594,22.793995083008175
1634,22.896610689528484
1674,20.863142837712095
2,1, 7,21, 0, 9, 0.00,10.00,SummerDesignDay
8,14.773641492809972
10,107136608.37322983
1788,0.0
1825,114741243.68872272
2,1, 7,21, 0, 9,10.00,20.00,SummerDesignDay
8,14.91640948124148
10,107136608.37322983
1788,0.0
1825,116152187.02009177
2,1, 7,21, 0, 9,20.00,30.00,SummerDesignDay
8,15.05843890714102
10,107136608.37322983
1788,0.0
1825,134982245.8616451
2,1, 7,21, 0, 9,30.00,40.00,SummerDesignDay
8,15.199735893563798
10,107136608.37322983
1788,0.0
1825,148536972.29641465
2,1, 7,21, 0, 9,40.00,50.00,SummerDesignDay
8,15.340306256439395
10,107136608.37322983
1788,0.0
1825,159497089.1499025
2,1, 7,21, 0, 9,50.00,60.00,SummerDesignDay
8,15.48015101768072
10,107136608.37322983
1788,0.0
1825,171007803.4059031
2,1, 7,21, 0, 9, 0.00,60.00,SummerDesignDay
914,22.822524145741828
954,23.928146493403845
994,22.906761121407926
1034,23.999999999987965
1074,23.999999999999706
1114,24.0
1154,24.00000000000001
1194,23.96859871059228
1234,23.99999999999999
1274,23.99609675513085
1314,23.848232048700173
1354,24.00000000000001
1394,24.00000000000001
1434,24.000000000000019
1474,25.236808082298386
1514,24.000000000000005
1554,23.999999999905538
1594,23.416768547740415
1634,23.518287403505956
1674,22.0359128293333
2,1, 7,21, 0,10, 0.00,10.00,SummerDesignDay
8,15.60467292907716
10,157173941.94229264
1788,0.0
1825,229448096.5568797
2,1, 7,21, 0,10,10.00,20.00,SummerDesignDay
8,15.72862731650033
10,157173941.94229264
1788,0.0
1825,256121639.7596516
2,1, 7,21, 0,10,20.00,30.00,SummerDesignDay
8,15.852017409284228
10,157173941.94229264
1788,0.0
1825,276201615.61642029
2,1, 7,21, 0,10,30.00,40.00,SummerDesignDay
8,15.974848118364367
10,157173941.94229264
1788,0.0
1825,299254038.6392443
2,1, 7,21, 0,10,40.00,50.00,SummerDesignDay
8,16.097123145563505
10,157173941.94229264
1788,0.0
1825,320180571.94844588
2,1, 7,21, 0,10,50.00,60.00,SummerDesignDay
8,16.218846351168599
10,157173941.94229264
1788,0.0
1825,344846173.61701408
2,1, 7,21, 0,10, 0.00,60.00,SummerDesignDay
914,23.997012936591049
954,23.999999976703405
994,23.998066576414727
1034,24.0
1074,24.000000000000026
1114,24.000000000000019
1154,24.000000000000047
1194,24.00000000000001
1234,24.000000000000015
1274,24.00000000000001
1314,23.999999999968776
1354,24.00000000000001
1394,24.000000000000005
1434,24.0
1474,25.533904652228107
1514,23.999999999999998
1554,24.0
1594,23.998890686953133
1634,23.999403666518519
1674,23.566740844458719
2,1, 7,21, 0,11, 0.00,10.00,SummerDesignDay
8,16.325793027093189
10,184091217.92405824
1788,0.0
1825,385205819.1039172
2,1, 7,21, 0,11,10.00,20.00,SummerDesignDay
8,16.432322158488288
10,184091217.92405824
1788,0.0
1825,406052574.3481615
2,1, 7,21, 0,11,20.00,30.00,SummerDesignDay
8,16.538424180249178
10,184091217.92405824
1788,0.0
1825,424020808.24463739
2,1, 7,21, 0,11,30.00,40.00,SummerDesignDay
8,16.644108396469087
10,184091217.92405824
1788,0.0
1825,440429127.2145873
2,1, 7,21, 0,11,40.00,50.00,SummerDesignDay
8,16.749376736593655
10,184091217.92405824
1788,0.0
1825,456431464.3972084
2,1, 7,21, 0,11,50.00,60.00,SummerDesignDay
8,16.854232613237156
10,184091217.92405824
1788,0.0
1825,472192316.6489286
2,1, 7,21, 0,11, 0.00,60.00,SummerDesignDay
914,23.99999998604105
954,23.999999999999916
994,23.999999991666305
1034,24.00000000000001
1074,24.000000000000019
1114,24.000000000000005
1154,23.999999999999969
1194,24.000000000000015
1234,24.00000000000004
1274,24.000000000000015
1314,24.00000000000001
1354,24.000000000000033
1394,24.000000000000005
1434,24.00000000000003
1474,25.84100154684485
1514,24.00000000000003
1554,24.00000000000001
1594,23.999999999980774
1634,23.999999999990178
1674,23.999242925894408
2,1, 7,21, 0,12, 0.00,10.00,SummerDesignDay
8,16.92390823520069
10,205109792.99571345
1788,0.0
1825,509200810.4325902
2,1, 7,21, 0,12,10.00,20.00,SummerDesignDay
8,16.99340178950456
10,205109792.99571345
1788,0.0
1825,522029082.49919906
2,1, 7,21, 0,12,20.00,30.00,SummerDesignDay
8,17.06272006743463
10,205109792.99571345
1788,0.0
1825,533580568.12653639
2,1, 7,21, 0,12,30.00,40.00,SummerDesignDay
8,17.131853229172639
10,205109792.99571345
1788,0.0
1825,545089226.1387602
2,1, 7,21, 0,12,40.00,50.00,SummerDesignDay
8,17.200807172194087
10,205109792.99571345
1788,0.0
1825,556490795.1169554
2,1, 7,21, 0,12,50.00,60.00,SummerDesignDay
8,17.269582116758607
10,205109792.99571345
1788,0.0
1825,567750392.325336
2,1, 7,21, 0,12, 0.00,60.00,SummerDesignDay
914,23.999999999999387
954,24.000000000000069
994,23.99999999999956
1034,23.999999999999998
1074,24.000000000000026
1114,24.000000000000005
1154,24.000000000000005
1194,24.000000000000015
1234,23.99999999999991
1274,24.000000000000026
1314,24.000000000000005
1354,24.00000000000004
1394,24.000000000000005
1434,24.000000000000019
1474,26.165011043428703
1514,24.00000000000004
1554,24.00000000000001
1594,24.00000000000001
1634,24.00000000000003
1674,23.999999852574179
2,1, 7,21, 0,13, 0.00,10.00,SummerDesignDay
8,17.32447360221357
10,203501056.38386525
1788,0.0
1825,596599135.7235094
2,1, 7,21, 0,13,10.00,20.00,SummerDesignDay
8,17.379251291230806
10,203501056.38386525
1788,0.0
1825,606131836.23284
2,1, 7,21, 0,13,20.00,30.00,SummerDesignDay
8,17.433921312061729
10,203501056.38386525
1788,0.0
1825,614835737.2086635
2,1, 7,21, 0,13,30.00,40.00,SummerDesignDay
8,17.488473222557489
10,203501056.38386525
1788,0.0
1825,623029424.0954236
2,1, 7,21, 0,13,40.00,50.00,SummerDesignDay
8,17.542913447755134
10,203501056.38386525
1788,0.0
1825,631005122.9836996
2,1, 7,21, 0,13,50.00,60.00,SummerDesignDay
8,17.59724609886134
10,203501056.38386525
1788,0.0
1825,638703299.5422722
2,1, 7,21, 0,13, 0.00,60.00,SummerDesignDay
914,23.999999999999916
954,24.000000000000069
994,24.0
1034,24.000000000000005
1074,24.00000000000003
1114,24.000000000000019
1154,23.99999999999999
1194,24.000000000000019
1234,24.00000000000006
1274,24.000000000000005
1314,24.0
1354,24.000000000000015
1394,24.000000000000005
1434,24.00000000000004
1474,26.44207530461802
1514,24.00000000000001
1554,23.999999999999998
1594,24.000000000000033
1634,24.00000000000004
1674,23.9999999999732
2,1, 7,21, 0,14, 0.00,10.00,SummerDesignDay
8,17.6311450462694
10,203501056.38386525
1788,0.0
1825,639462067.6208242
2,1, 7,21, 0,14,10.00,20.00,SummerDesignDay
8,17.665000449016245
10,203501056.38386525
1788,0.0
1825,644190033.5620891
2,1, 7,21, 0,14,20.00,30.00,SummerDesignDay
8,17.698812743128934
10,203501056.38386525
1788,0.0
1825,648902682.3474046
2,1, 7,21, 0,14,30.00,40.00,SummerDesignDay
8,17.732582050940107
10,203501056.38386525
1788,0.0
1825,653527501.2373107
2,1, 7,21, 0,14,40.00,50.00,SummerDesignDay
8,17.766307345121004
10,203501056.38386525
1788,0.0
1825,658085007.0964598
2,1, 7,21, 0,14,50.00,60.00,SummerDesignDay
8,17.79999023167558
10,203501056.38386525
1788,0.0
1825,662590074.9944612
2,1, 7,21, 0,14, 0.00,60.00,SummerDesignDay
914,23.999999999999998
954,23.999999999999916
994,24.000000000000058
1034,24.0
1074,24.00000000000003
1114,24.000000000000019
1154,23.999999999999998
1194,23.99999999999999
1234,24.00000000000001
1274,24.0
1314,24.0
1354,24.000000000000005
1394,24.0
1434,24.0
1474,26.61784927571622
1514,24.00000000000003
1554,24.000000000000015
1594,24.00000000000003
1634,24.00000000000004
1674,23.999999999999998
2,1, 7,21, 0,15, 0.00,10.00,SummerDesignDay
8,17.79999023167558
10,203501056.38386525
1788,0.0
1825,698252311.8758036
2,1, 7,21, 0,15,10.00,20.00,SummerDesignDay
8,17.79999023167558
10,203501056.38386525
1788,0.0
1825,663152460.5729375
2,1, 7,21, 0,15,20.00,30.00,SummerDesignDay
8,17.79999023167558
10,203501056.38386525
1788,0.0
1825,683484001.5527949
2,1, 7,21, 0,15,30.00,40.00,SummerDesignDay
8,17.79999023167558
10,203501056.38386525
1788,0.0
1825,662376843.9927458
2,1, 7,21, 0,15,40.00,50.00,SummerDesignDay
8,17.79999023167558
10,203501056.38386525
1788,0.0
1825,664728709.8014679
2,1, 7,21, 0,15,50.00,60.00,SummerDesignDay
8,17.79999023167558
10,203501056.38386525
1788,0.0
1825,664497126.1159408
2,1, 7,21, 0,15, 0.00,60.00,SummerDesignDay
914,23.99999999999999
954,23.999999999999934
994,23.999999999999984
1034,24.0
1074,24.000000000000015
1114,24.00000000000001
1154,23.999999999999987
1194,24.0
1234,24.000000000000044
1274,24.00000000000001
1314,24.0
1354,24.000000000000026
1394,24.00000000000001
1434,23.999999999999984
1474,23.874549556927687
1514,24.000000000000033
1554,24.000000000000015
1594,24.0
1634,24.00000000000003
1674,24.00000000000001
2,1, 7,21, 0,16, 0.00,10.00,SummerDesignDay
8,17.759562446305357
10,210346624.41338028
1788,0.0
1825,648250465.5969668
2,1, 7,21, 0,16,10.00,20.00,SummerDesignDay
8,17.71907809634183
10,210346624.41338028
1788,0.0
1825,642044859.1440557
2,1, 7,21, 0,16,20.00,30.00,SummerDesignDay
8,17.67853788661001
10,210346624.41338028
1788,0.0
1825,635540504.3912608
2,1, 7,21, 0,16,30.00,40.00,SummerDesignDay
8,17.63791796367351
10,210346624.41338028
1788,0.0
1825,628671633.7591072
2,1, 7,21, 0,16,40.00,50.00,SummerDesignDay
8,17.59724609886134
10,210346624.41338028
1788,0.0
1825,621531780.2228158
2,1, 7,21, 0,16,50.00,60.00,SummerDesignDay
8,17.55650676726033
10,210346624.41338028
1788,0.0
1825,614144556.3346925
2,1, 7,21, 0,16, 0.00,60.00,SummerDesignDay
914,24.0
954,23.99999999999997
994,24.00000000000004
1034,24.00000000000001
1074,24.000000000000055
1114,24.00000000000001
1154,24.000000000000069
1194,24.000000000000019
1234,24.000000000000019
1274,24.00000000000001
1314,24.00000000000001
1354,23.99999999999999
1394,24.00000000000001
1434,24.000000000000019
1474,23.99999999999965
1514,24.000000000000019
1554,23.99999999999999
1594,24.000000000000033
1634,24.000000000000026
1674,24.00000000000001
2,1, 7,21, 0,17, 0.00,10.00,SummerDesignDay
8,17.50209486331892
10,208460390.11039088
1788,0.0
1825,604291740.4170574
2,1, 7,21, 0,17,10.00,20.00,SummerDesignDay
8,17.447570789624618
10,208460390.11039088
1788,0.0
1825,594696263.7441579
2,1, 7,21, 0,17,20.00,30.00,SummerDesignDay
8,17.392929544208135
10,208460390.11039088
1788,0.0
1825,585015819.2722998
2,1, 7,21, 0,17,30.00,40.00,SummerDesignDay
8,17.33818013976614
10,208460390.11039088
1788,0.0
1825,575196369.0189945
2,1, 7,21, 0,17,40.00,50.00,SummerDesignDay
8,17.283317298559309
10,208460390.11039088
1788,0.0
1825,565241026.7704709
2,1, 7,21, 0,17,50.00,60.00,SummerDesignDay
8,17.22833552437677
10,208460390.11039088
1788,0.0
1825,555143504.5314741
2,1, 7,21, 0,17, 0.00,60.00,SummerDesignDay
914,24.0
954,23.999999999999984
994,24.000000000000019
1034,23.99999999999999
1074,24.00000000000003
1114,24.000000000000026
1154,24.00000000000007
1194,24.00000000000001
1234,24.000000000000019
1274,24.000000000000005
1314,24.0
1354,24.000000000000005
1394,24.000000000000005
1434,24.000000000000015
1474,24.000000000000005
1514,24.0
1554,24.000000000000015
1594,24.00000000000003
1634,24.000000000000033
1674,24.000000000000005
2,1, 7,21, 0,18, 0.00,10.00,SummerDesignDay
8,17.159453019160176
10,199752962.5766686
1788,0.0
1825,544673629.3056568
2,1, 7,21, 0,18,10.00,20.00,SummerDesignDay
8,17.090391773337136
10,199752962.5766686
1788,0.0
1825,532352158.8429438
2,1, 7,21, 0,18,20.00,30.00,SummerDesignDay
8,17.021151077964786
10,199752962.5766686
1788,0.0
1825,519977713.6727492
2,1, 7,21, 0,18,30.00,40.00,SummerDesignDay
8,16.951729380464653
10,199752962.5766686
1788,0.0
1825,507658099.6231013
2,1, 7,21, 0,18,40.00,50.00,SummerDesignDay
8,16.882126503829249
10,199752962.5766686
1788,0.0
1825,495362494.47620549
2,1, 7,21, 0,18,50.00,60.00,SummerDesignDay
8,16.812341807494034
10,199752962.5766686
1788,0.0
1825,482791650.1951127
2,1, 7,21, 0,18, 0.00,60.00,SummerDesignDay
914,24.000000000000047
954,23.999999999999959
994,23.99999999999999
1034,24.0
1074,24.000000000000044
1114,24.00000000000001
1154,24.000000000000019
1194,24.000000000000015
1234,24.00000000000006
1274,24.00000000000001
1314,24.000000000000015
1354,24.00000000000001
1394,24.00000000000001
1434,24.0
1474,24.00000000000004
1514,24.000000000000033
1554,24.00000000000001
1594,24.000000000000044
1634,23.999999999999987
1674,24.0
2,1, 7,21, 0,19, 0.00,10.00,SummerDesignDay
8,16.707321072823203
10,198571722.40384967
1788,0.0
1825,483038481.2852874
2,1, 7,21, 0,19,10.00,20.00,SummerDesignDay
8,16.601881826644556
10,198571722.40384967
1788,0.0
1825,464784465.32011976
2,1, 7,21, 0,19,20.00,30.00,SummerDesignDay
8,16.496030555252849
10,198571722.40384967
1788,0.0
1825,445534170.7137957
2,1, 7,21, 0,19,30.00,40.00,SummerDesignDay
8,16.389760181474104
10,198571722.40384967
1788,0.0
1825,426505901.61776849
2,1, 7,21, 0,19,40.00,50.00,SummerDesignDay
8,16.283067654262039
10,198571722.40384967
1788,0.0
1825,407702985.2652514
2,1, 7,21, 0,19,50.00,60.00,SummerDesignDay
8,16.17595057957811
10,198571722.40384967
1788,0.0
1825,389044020.2142883
2,1, 7,21, 0,19, 0.00,60.00,SummerDesignDay
914,24.00000000000001
954,24.00000000000004
994,24.000000000000033
1034,24.000000000000015
1074,24.000000000000019
1114,23.999999999999987
1154,24.000000000000019
1194,24.000000000000019
1234,24.00000000000003
1274,24.000000000000005
1314,24.000000000000005
1354,24.000000000000005
1394,24.0
1434,24.000000000000005
1474,24.000000000000019
1514,24.000000000000019
1554,24.000000000000005
1594,24.000000000000047
1634,24.00000000000004
1674,24.000000000000005
2,1, 7,21, 0,20, 0.00,10.00,SummerDesignDay
8,16.097123145563505
10,219525423.01659335
1788,0.0
1825,394355407.99675729
2,1, 7,21, 0,20,10.00,20.00,SummerDesignDay
8,16.018070242471564
10,219525423.01659335
1788,0.0
1825,381393040.3600169
2,1, 7,21, 0,20,20.00,30.00,SummerDesignDay
8,15.938779752340516
10,219525423.01659335
1788,0.0
1825,367432270.2048351
2,1, 7,21, 0,20,30.00,40.00,SummerDesignDay
8,15.85926152575189
10,219525423.01659335
1788,0.0
1825,353315342.81982609
2,1, 7,21, 0,20,40.00,50.00,SummerDesignDay
8,15.779503718563929
10,219525423.01659335
1788,0.0
1825,338889610.8053744
2,1, 7,21, 0,20,50.00,60.00,SummerDesignDay
8,15.699515709672767
10,219525423.01659335
1788,0.0
1825,324032827.3555568
2,1, 7,21, 0,20, 0.00,60.00,SummerDesignDay
914,24.000000000000015
954,23.99999999999997
994,24.00000000000003
1034,24.000000000000005
1074,24.00000000000003
1114,24.000000000000058
1154,24.000000000000015
1194,24.000000000000005
1234,24.000000000000019
1274,24.0
1314,24.41191227024632
1354,24.000000000000015
1394,24.000000000000005
1434,23.999999999999998
1474,24.000000000000026
1514,24.000000000000019
1554,24.00000000000001
1594,24.000000000000026
1634,24.0
1674,24.00000000000001
2,1, 7,21, 0,21, 0.00,10.00,SummerDesignDay
8,15.63389147320404
10,217755062.7515122
1788,0.0
1825,309376772.05832299
2,1, 7,21, 0,21,10.00,20.00,SummerDesignDay
8,15.56810827419793
10,217755062.7515122
1788,0.0
1825,295481190.249961
2,1, 7,21, 0,21,20.00,30.00,SummerDesignDay
8,15.502170882753524
10,217755062.7515122
1788,0.0
1825,281348151.0173484
2,1, 7,21, 0,21,30.00,40.00,SummerDesignDay
8,15.436068032613852
10,217755062.7515122
1788,0.0
1825,267134561.22297357
2,1, 7,21, 0,21,40.00,50.00,SummerDesignDay
8,15.369804371206009