Program Version,EnergyPlus, Version 8.9.0-eba93e8e1b, YMD=2019.03.20 17:59
1,5,Environment Title[],Latitude[deg],Longitude[deg],Time Zone[],Elevation[m]
2,8,Day of Simulation[],Month[],Day of Month[],DST Indicator[1=yes 0=no],Hour[],StartMinute[],EndMinute[],DayType
3,5,Cumulative Day of Simulation[],Month[],Day of Month[],DST Indicator[1=yes 0=no],DayType  ! When Daily Report Variables Requested
4,2,Cumulative Days of Simulation[],Month[]  ! When Monthly Report Variables Requested
5,1,Cumulative Days of Simulation[] ! When Run Period Report Variables Requested
6,1,Calendar Year of Simulation[] ! When Annual Report Variables Requested
7,9,Environment,Site Outdoor Air Drybulb Temperature [C] !Monthly [Value,Min,Day,Hour,Minute,Max,Day,Hour,Minute]
8,1,Environment,Site Outdoor Air Wetbulb Temperature [C] !TimeStep
810,1,LAB - RESEARCH-SPACE FUNCTION ZN,Zone Air Temperature [C] !Hourly
811,7,LAB - RESEARCH-SPACE FUNCTION ZN,Zone Air Relative Humidity [%] !Daily [Value,Min,Hour,Minute,Max,Hour,Minute]
850,1,LIBRARY - CATALOGING-SPACE FUNCTION ZN,Zone Air Temperature [C] !Hourly
851,7,LIBRARY - CATALOGING-SPACE FUNCTION ZN,Zone Air Relative Humidity [%] !Daily [Value,Min,Hour,Minute,Max,Hour,Minute]
890,1,LIBRARY - READING-SPACE FUNCTION ZN,Zone Air Temperature [C] !Hourly
891,7,LIBRARY - READING-SPACE FUNCTION ZN,Zone Air Relative Humidity [%] !Daily [Value,Min,Hour,Minute,Max,Hour,Minute]
930,1,LIBRARY - STACKS-SPACE FUNCTION ZN,Zone Air Temperature [C] !Hourly
931,7,LIBRARY - STACKS-SPACE FUNCTION ZN,Zone Air Relative Humidity [%] !Daily [Value,Min,Hour,Minute,Max,Hour,Minute]
970,1,LOBBY - ELEVATOR-SPACE FUNCTION ZN,Zone Air Temperature [C] !Hourly
971,7,LOBBY - ELEVATOR-SPACE FUNCTION ZN,Zone Air Relative Humidity [%] !Daily [Value,Min,Hour,Minute,Max,Hour,Minute]
1010,1,LOBBY - MOTION PICTURE-SPACE FUNCTION ZN,Zone Air Temperature [C] !Hourly
1011,7,LOBBY - MOTION PICTURE-SPACE FUNCTION ZN,Zone Air Relative Humidity [%] !Daily [Value,Min,Hour,Minute,Max,Hour,Minute]
1050,1,LOBBY - OTHER-SPACE FUNCTION ZN,Zone Air Temperature [C] !Hourly
1051,7,LOBBY - OTHER-SPACE FUNCTION ZN,Zone Air Relative Humidity [%] !Daily [Value,Min,Hour,Minute,Max,Hour,Minute]
1090,1,LOBBY - PERFORMANCE ARTS-SPACE FUNCTION ZN,Zone Air Temperature [C] !Hourly
1091,7,LOBBY - PERFORMANCE ARTS-SPACE FUNCTION ZN,Zone Air Relative Humidity [%] !Daily [Value,Min,Hour,Minute,Max,Hour,Minute]
1130,1,LOUNGE/RECREATION-SPACE FUNCTION ZN,Zone Air Temperature [C] !Hourly
1131,7,LOUNGE/RECREATION-SPACE FUNCTION ZN,Zone Air Relative Humidity [%] !Daily [Value,Min,Hour,Minute,Max,Hour,Minute]
1170,1,MFG - 7.5 <= BAY H <= 15M-SPACE FUNCTION ZN,Zone Air Temperature [C] !Hourly
1171,7,MFG - 7.5 <= BAY H <= 15M-SPACE FUNCTION ZN,Zone Air Relative Humidity [%] !Daily [Value,Min,Hour,Minute,Max,Hour,Minute]
1210,1,MFG - BAY H < 7.5M-SPACE FUNCTION ZN,Zone Air Temperature [C] !Hourly
1211,7,MFG - BAY H < 7.5M-SPACE FUNCTION ZN,Zone Air Relative Humidity [%] !Daily [Value,Min,Hour,Minute,Max,Hour,Minute]
1250,1,MFG - BAY H > 15M-SPACE FUNCTION ZN,Zone Air Temperature [C] !Hourly
1251,7,MFG - BAY H > 15M-SPACE FUNCTION ZN,Zone Air Relative Humidity [%] !Daily [Value,Min,Hour,Minute,Max,Hour,Minute]
1290,1,MFG - CORR. < 2.4M-SCH-A-SPACE FUNCTION ZN,Zone Air Temperature [C] !Hourly
1291,7,MFG - CORR. < 2.4M-SCH-A-SPACE FUNCTION ZN,Zone Air Relative Humidity [%] !Daily [Value,Min,Hour,Minute,Max,Hour,Minute]
1330,1,MFG - CORR. < 2.4M-SCH-B-SPACE FUNCTION ZN,Zone Air Temperature [C] !Hourly
1331,7,MFG - CORR. < 2.4M-SCH-B-SPACE FUNCTION ZN,Zone Air Relative Humidity [%] !Daily [Value,Min,Hour,Minute,Max,Hour,Minute]
1370,1,MFG - CORR. < 2.4M-SCH-C-SPACE FUNCTION ZN,Zone Air Temperature [C] !Hourly
1371,7,MFG - CORR. < 2.4M-SCH-C-SPACE FUNCTION ZN,Zone Air Relative Humidity [%] !Daily [Value,Min,Hour,Minute,Max,Hour,Minute]
1410,1,MFG - CORR. < 2.4M-SCH-D-SPACE FUNCTION ZN,Zone Air Temperature [C] !Hourly
1411,7,MFG - CORR. < 2.4M-SCH-D-SPACE FUNCTION ZN,Zone Air Relative Humidity [%] !Daily [Value,Min,Hour,Minute,Max,Hour,Minute]
1450,1,MFG - CORR. < 2.4M-SCH-E-SPACE FUNCTION ZN,Zone Air Temperature [C] !Hourly
1451,7,MFG - CORR. < 2.4M-SCH-E-SPACE FUNCTION ZN,Zone Air Relative Humidity [%] !Daily [Value,Min,Hour,Minute,Max,Hour,Minute]
1490,1,MFG - CORR. < 2.4M-SCH-F-SPACE FUNCTION ZN,Zone Air Temperature [C] !Hourly
1491,7,MFG - CORR. < 2.4M-SCH-F-SPACE FUNCTION ZN,Zone Air Relative Humidity [%] !Daily [Value,Min,Hour,Minute,Max,Hour,Minute]
1530,1,MFG - CORR. < 2.4M-SCH-G-SPACE FUNCTION ZN,Zone Air Temperature [C] !Hourly
1531,7,MFG - CORR. < 2.4M-SCH-G-SPACE FUNCTION ZN,Zone Air Relative Humidity [%] !Daily [Value,Min,Hour,Minute,Max,Hour,Minute]
1570,1,MFG - CORR. < 2.4M-SCH-H-SPACE FUNCTION ZN,Zone Air Temperature [C] !Hourly
1571,7,MFG - CORR. < 2.4M-SCH-H-SPACE FUNCTION ZN,Zone Air Relative Humidity [%] !Daily [Value,Min,Hour,Minute,Max,Hour,Minute]
10,1,Electricity:Facility [J] !TimeStep
1721,1,DistrictCooling:Facility [J] !TimeStep
1684,1,DistrictHeating:Facility [J] !TimeStep
End of Data Dictionary
1,FORT MCMURRAY AP ANN CLG .4% CONDNS DB=>MWB,  56.65,-111.22,  -7.00, 369.10
2,1, 7,21, 0, 1, 0.00,10.00,SummerDesignDay
8,14.218136923962174
10,49394963.89106321
1684,0.0
1721,2760342.570603295
2,1, 7,21, 0, 1,10.00,20.00,SummerDesignDay
8,14.171982153293495
10,49394963.89106321
1684,0.0
1721,2178032.9484397235
2,1, 7,21, 0, 1,20.00,30.00,SummerDesignDay
8,14.125744780286427
10,49394963.89106321
1684,0.0
1721,1638938.0006145568
2,1, 7,21, 0, 1,30.00,40.00,SummerDesignDay
8,14.079436086331978
10,49394963.89106321
1684,0.0
1721,1101837.2387914595
2,1, 7,21, 0, 1,40.00,50.00,SummerDesignDay
8,14.033050387896898
10,49394963.89106321
1684,0.0
1721,568199.3327451249
2,1, 7,21, 0, 1,50.00,60.00,SummerDesignDay
8,13.986581233564835
10,49394963.89106321
1684,0.0
1721,37128.284301198495
2,1, 7,21, 0, 1, 0.00,60.00,SummerDesignDay
810,21.748001926188136
850,24.53212111385767
890,23.00196089916747
930,23.61569144627745
970,20.648258475829875
1010,20.55550351867726
1050,20.406886575708936
1090,21.362469279182734
1130,24.0
1170,23.618474665024693
1210,22.857901563713914
1250,23.62375215586877
1290,23.335958328822746
1330,22.963989935713685
1370,22.046824155832657
1410,23.573947975908955
1450,22.995135658379508
1490,23.658643319170506
1530,23.0855654285599
1570,23.208863763333384
2,1, 7,21, 0, 2, 0.00,10.00,SummerDesignDay
8,13.95555882260429
10,38769052.329719249
1684,0.0
1721,0.0
2,1, 7,21, 0, 2,10.00,20.00,SummerDesignDay
8,13.924507755336454
10,38769052.329719249
1684,0.0
1721,0.0
2,1, 7,21, 0, 2,20.00,30.00,SummerDesignDay
8,13.893416042989206
10,38769052.329719249
1684,0.0
1721,0.0
2,1, 7,21, 0, 2,30.00,40.00,SummerDesignDay
8,13.862289589689029
10,38769052.329719249
1684,0.0
1721,0.0
2,1, 7,21, 0, 2,40.00,50.00,SummerDesignDay
8,13.831134407608739
10,38769052.329719249
1684,0.0
1721,0.0
2,1, 7,21, 0, 2,50.00,60.00,SummerDesignDay
8,13.799938415548118
10,38769052.329719249
1684,0.0
1721,0.0
2,1, 7,21, 0, 2, 0.00,60.00,SummerDesignDay
810,21.24547670828738
850,24.215664662214456
890,22.568939990302594
930,23.349943718537458
970,20.217684910419839
1010,20.133574535926788
1050,19.86564930337575
1090,20.935521851898686
1130,23.31357837649507
1170,23.2859558759782
1210,22.562555816071624
1250,23.345105674767223
1290,22.961265555713454
1330,22.510304347933695
1370,21.596780123420147
1410,23.28406442181309
1450,22.720385116927124
1490,23.265722714653618
1530,22.67259962271791
1570,22.95350669848554
2,1, 7,21, 0, 3, 0.00,10.00,SummerDesignDay
8,13.776521671948676
10,30618120.167865337
1684,0.0
1721,0.0
2,1, 7,21, 0, 3,10.00,20.00,SummerDesignDay
8,13.753085235778466
10,30618120.167865337
1684,0.0
1721,0.0
2,1, 7,21, 0, 3,20.00,30.00,SummerDesignDay
8,13.729636002354969
10,30618120.167865337
1684,0.0
1721,0.0
2,1, 7,21, 0, 3,30.00,40.00,SummerDesignDay
8,13.706147375533054
10,30618120.167865337
1684,0.0
1721,0.0
2,1, 7,21, 0, 3,40.00,50.00,SummerDesignDay
8,13.682651961920304
10,30618120.167865337
1684,0.0
1721,0.0
2,1, 7,21, 0, 3,50.00,60.00,SummerDesignDay
8,13.659136670643687
10,30618120.167865337
1684,0.0
1721,0.0
2,1, 7,21, 0, 3, 0.00,60.00,SummerDesignDay
810,20.837749024478677
850,23.9362490463928
890,22.18861560236853
930,23.125367954240077
970,19.887568643480859
1010,19.815303854428817
1050,19.442880658515347
1090,20.60091352203443
1130,22.221549727284445
1170,23.003814396628646
1210,22.325500181270539
1250,23.10699857763807
1290,22.634091931021528
1330,22.046427693295429
1370,21.214376061813593
1410,23.041588560036919
1450,22.49302835997493
1490,22.96028882242464
1530,22.39309636567066
1570,22.746500207962645
2,1, 7,21, 0, 4, 0.00,10.00,SummerDesignDay
8,13.63560137410855
10,29999375.317992826
1684,0.0
1721,0.0
2,1, 7,21, 0, 4,10.00,20.00,SummerDesignDay
8,13.612040802606578
10,29999375.317992826
1684,0.0
1721,0.0
2,1, 7,21, 0, 4,20.00,30.00,SummerDesignDay
8,13.58846620506876
10,29999375.317992826
1684,0.0
1721,0.0
2,1, 7,21, 0, 4,30.00,40.00,SummerDesignDay
8,13.56487178447336
10,29999375.317992826
1684,0.0
1721,0.0
2,1, 7,21, 0, 4,40.00,50.00,SummerDesignDay
8,13.541257354069103
10,29999375.317992826
1684,0.0
1721,0.0
2,1, 7,21, 0, 4,50.00,60.00,SummerDesignDay
8,13.517617463812285
10,29999375.317992826
1684,0.0
1721,0.0
2,1, 7,21, 0, 4, 0.00,60.00,SummerDesignDay
810,20.475226271695573
850,23.67111338308975
890,21.838540814496864
930,22.919352810729717
970,19.59517791793608
1010,19.535757276859664
1050,19.071541051434325
1090,20.297182856541729
1130,21.60284675605133
1170,22.740683425056063
1210,22.112790739910989
1250,22.870250463467007
1290,22.325659528565823
1330,21.74728767720869
1370,20.868012301973886
1410,22.816703267867678
1450,22.283319048107289
1490,22.65063897517608
1530,22.160306979360816
1570,22.556728982662095
2,1, 7,21, 0, 5, 0.00,10.00,SummerDesignDay
8,13.50185415824011
10,29999375.317992826
1684,0.0
1721,0.0
2,1, 7,21, 0, 5,10.00,20.00,SummerDesignDay
8,13.486076034032447
10,29999375.317992826
1684,0.0
1721,0.0
2,1, 7,21, 0, 5,20.00,30.00,SummerDesignDay
8,13.470289340350983
10,29999375.317992826
1684,0.0
1721,0.0
2,1, 7,21, 0, 5,30.00,40.00,SummerDesignDay
8,13.454493322631063
10,29999375.317992826
1684,0.0
1721,0.0
2,1, 7,21, 0, 5,40.00,50.00,SummerDesignDay
8,13.438688835118548
10,29999375.317992826
1684,0.0
1721,0.0
2,1, 7,21, 0, 5,50.00,60.00,SummerDesignDay
8,13.422888173889437
10,29999375.317992826
1684,0.0
1721,0.0
2,1, 7,21, 0, 5, 0.00,60.00,SummerDesignDay
810,20.395971894082757
850,23.422031363891806
890,21.590637446977494
930,22.725932144833807
970,19.335126281562986
1010,19.28843215662026
1050,18.795912726289758
1090,20.026347997581337
1130,21.31925169103374
1170,22.5530023208466
1210,21.91522997010225
1250,22.63713593210528
1290,22.03714544268509
1330,21.51624572312764
1370,20.7414587201415
1410,22.60960014582952
1450,22.146690408477516
1490,22.477570788674514
1530,22.04186288570509
1570,22.376774049211467
2,1, 7,21, 0, 6, 0.00,10.00,SummerDesignDay
8,13.438688835118548
10,29999375.317992826
1684,0.0
1721,0.0
2,1, 7,21, 0, 6,10.00,20.00,SummerDesignDay
8,13.454493322631063
10,29999375.317992826
1684,0.0
1721,0.0
2,1, 7,21, 0, 6,20.00,30.00,SummerDesignDay
8,13.470289340350983
10,29999375.317992826
1684,0.0
1721,0.0
2,1, 7,21, 0, 6,30.00,40.00,SummerDesignDay
8,13.486076034032447
10,29999375.317992826
1684,0.0
1721,0.0
2,1, 7,21, 0, 6,40.00,50.00,SummerDesignDay
8,13.50185415824011
10,29999375.317992826
1684,0.0
1721,0.0
2,1, 7,21, 0, 6,50.00,60.00,SummerDesignDay
8,13.517617463812285
10,29999375.317992826
1684,0.0
1721,0.0
2,1, 7,21, 0, 6, 0.00,60.00,SummerDesignDay
810,21.205419496641328
850,23.25277022503005
890,21.656798741487838
930,22.591334265599046
970,19.24333083758349
1010,19.202172585607973
1050,18.8371207134683
1090,19.920507759645678
1130,21.35215017226172
1170,22.503443670071204
1210,21.80084723989414
1250,22.48579029112039
1290,21.848056922838088
1330,21.365445482726174
1370,21.041575679742456
1410,22.491802386407654
1450,22.135416724688743
1490,22.74625864036396
1530,22.33542453979466
1570,22.2743251046472
2,1, 7,21, 0, 7, 0.00,10.00,SummerDesignDay
8,13.572736920571789
10,31855609.86761036
1684,0.0
1721,0.0
2,1, 7,21, 0, 7,10.00,20.00,SummerDesignDay
8,13.627748229152554
10,31855609.86761036
1684,0.0
1721,0.0
2,1, 7,21, 0, 7,20.00,30.00,SummerDesignDay
8,13.682651961920304
10,31855609.86761036
1684,0.0
1721,0.0
2,1, 7,21, 0, 7,30.00,40.00,SummerDesignDay
8,13.737448093244995
10,31855609.86761036
1684,0.0
1721,0.0
2,1, 7,21, 0, 7,40.00,50.00,SummerDesignDay
8,13.792137011831216
10,31855609.86761036
1684,0.0
1721,0.0
2,1, 7,21, 0, 7,50.00,60.00,SummerDesignDay
8,13.846719282840333
10,31855609.86761036
1684,0.0
1721,0.0
2,1, 7,21, 0, 7, 0.00,60.00,SummerDesignDay
810,22.383027771977799
850,23.22188501080314
890,22.082974581510155
930,22.58383778687826
970,19.48030666881244
1010,19.429074080635798
1050,19.3371646676798
1090,20.112629559374008
1130,21.761574094127558
1170,22.49242018576214
1210,21.857375917944706
1250,22.50360236561129
1290,21.837279246472958
1330,21.381078474002036
1370,21.39181275538418
1410,22.529408689501527
1450,22.141316665114358
1490,23.25048985365676
1530,22.85618412094627
1570,22.33021933763789
2,1, 7,21, 0, 8, 0.00,10.00,SummerDesignDay
8,13.978831900527043
10,59558504.3032365
1684,18268508.328502004
1721,0.0
2,1, 7,21, 0, 8,10.00,20.00,SummerDesignDay
8,14.110321014287419
10,59558504.3032365
1684,0.0
1721,2564108.973629472
2,1, 7,21, 0, 8,20.00,30.00,SummerDesignDay
8,14.241191509616986
10,59558504.3032365
1684,0.0
1721,14713206.847201214
2,1, 7,21, 0, 8,30.00,40.00,SummerDesignDay
8,14.371447531304272
10,59558504.3032365
1684,0.0
1721,15245177.193548466
2,1, 7,21, 0, 8,40.00,50.00,SummerDesignDay
8,14.501093766564925
10,59558504.3032365
1684,0.0
1721,20326550.145092504
2,1, 7,21, 0, 8,50.00,60.00,SummerDesignDay
8,14.630134792273804
10,59558504.3032365
1684,0.0
1721,25195207.5538755
2,1, 7,21, 0, 8, 0.00,60.00,SummerDesignDay
810,23.86621868667846
850,23.41353955569353
890,23.064194477282539
930,22.781918646953984
970,20.320315975975637
1010,20.267082249076006
1050,20.64625789672431
1090,20.794622880876579
1130,22.741034838387539
1170,23.095891584763426
1210,22.53112613406663
1250,23.08282659629744
1290,22.243863472020494
1330,21.66664520380066
1370,22.345948774218838
1410,22.815907009708075
1450,22.425740281313819
1490,23.86743106789163
1530,23.547176966915669
1570,22.64032239414136
2,1, 7,21, 0, 9, 0.00,10.00,SummerDesignDay
8,14.773641492809972
10,178155017.26630793
1684,65440812.14509522
1721,54994223.47284955
2,1, 7,21, 0, 9,10.00,20.00,SummerDesignDay
8,14.91640948124148
10,178155017.26630793
1684,6901258.747687224
1721,77545115.44671636
2,1, 7,21, 0, 9,20.00,30.00,SummerDesignDay
8,15.05843890714102
10,178155017.26630793
1684,3436051.946684324
1721,119243464.31633894
2,1, 7,21, 0, 9,30.00,40.00,SummerDesignDay
8,15.199735893563798
10,178155017.26630793
1684,0.0
1721,141137744.59309865
2,1, 7,21, 0, 9,40.00,50.00,SummerDesignDay
8,15.340306256439395
10,178155017.26630793
1684,0.0
1721,159927466.44980345
2,1, 7,21, 0, 9,50.00,60.00,SummerDesignDay
8,15.48015101768072
10,178155017.26630793
1684,0.0
1721,179143517.17773608
2,1, 7,21, 0, 9, 0.00,60.00,SummerDesignDay
810,23.999999999055917
850,23.93758457592891
890,23.987006087487996
930,23.769644386431776
970,22.212386131993666
1010,22.16732959349318
1050,23.085180465981997
1090,22.632076672342646
1130,23.8785231885192
1170,23.962323563087336
1210,23.826526454160285
1250,23.95254584630167
1290,23.075882809232508
1330,22.271184364816965
1370,23.787857665020409
1410,23.469608670237549
1450,23.14667652006193
1490,23.999999995158644
1530,23.99005302161903
1570,23.254488433721887
2,1, 7,21, 0,10, 0.00,10.00,SummerDesignDay
8,15.60467292907716
10,245750454.69542758
1684,0.0
1721,229973888.92536176
2,1, 7,21, 0,10,10.00,20.00,SummerDesignDay
8,15.72862731650033
10,245750454.69542758
1684,0.0
1721,258094191.48749269
2,1, 7,21, 0,10,20.00,30.00,SummerDesignDay
8,15.852017409284228
10,245750454.69542758
1684,0.0
1721,288430825.4467219
2,1, 7,21, 0,10,30.00,40.00,SummerDesignDay
8,15.974848118364367
10,245750454.69542758
1684,0.0
1721,313704089.6250748
2,1, 7,21, 0,10,40.00,50.00,SummerDesignDay
8,16.097123145563505
10,245750454.69542758
1684,0.0
1721,338395489.4609306
2,1, 7,21, 0,10,50.00,60.00,SummerDesignDay
8,16.218846351168599
10,245750454.69542758
1684,0.0
1721,373604557.43431356
2,1, 7,21, 0,10, 0.00,60.00,SummerDesignDay
810,23.99999999999999
850,23.999999999993539
890,23.99999999999979
930,23.999999999693377
970,23.514941973524853
1010,23.41041205166961
1050,23.999246309356854
1090,23.910238304987844
1130,23.999999999977207
1170,23.99999999998487
1210,23.999999999785144
1250,23.999999999970158
1290,23.924290323748314
1330,23.28854181211739
1370,23.999999999468885
1410,23.99133368924196
1450,23.92631045869128
1490,24.0
1530,23.99999999999648
1570,23.92172086053841
2,1, 7,21, 0,11, 0.00,10.00,SummerDesignDay
8,16.325793027093189
10,251063410.47609959
1684,0.0
1721,415160467.49397376
2,1, 7,21, 0,11,10.00,20.00,SummerDesignDay
8,16.432322158488288
10,251063410.47609959
1684,0.0
1721,445494306.30784329
2,1, 7,21, 0,11,20.00,30.00,SummerDesignDay
8,16.538424180249178
10,251063410.47609959
1684,0.0
1721,468913683.0646129
2,1, 7,21, 0,11,30.00,40.00,SummerDesignDay
8,16.644108396469087
10,251063410.47609959
1684,0.0
1721,494594067.483123
2,1, 7,21, 0,11,40.00,50.00,SummerDesignDay
8,16.749376736593655
10,251063410.47609959
1684,0.0
1721,519569207.1075309
2,1, 7,21, 0,11,50.00,60.00,SummerDesignDay
8,16.854232613237156
10,251063410.47609959
1684,0.0
1721,543888565.7612717
2,1, 7,21, 0,11, 0.00,60.00,SummerDesignDay
810,24.000000000000058
850,24.00000000000003
890,24.000000000000019
930,24.000000000000026
970,23.999223548667528
1010,23.998547892360294
1050,23.999999997541285
1090,23.999999501501795
1130,23.999999999999998
1170,24.000000000000033
1210,24.000000000000033
1250,24.00000000000001
1290,23.99999999758282
1330,23.996256381682217
1370,24.00000000000004
1410,23.999999999972876
1450,23.999999997656177
1490,24.00000000000001
1530,24.000000000000005
1570,23.99999999058574
2,1, 7,21, 0,12, 0.00,10.00,SummerDesignDay
8,16.92390823520069
10,254520131.707154
1684,0.0
1721,566412530.7273247
2,1, 7,21, 0,12,10.00,20.00,SummerDesignDay
8,16.99340178950456
10,254520131.707154
1684,0.0
1721,584092433.3236045
2,1, 7,21, 0,12,20.00,30.00,SummerDesignDay
8,17.06272006743463
10,254520131.707154
1684,0.0
1721,601529603.7312688
2,1, 7,21, 0,12,30.00,40.00,SummerDesignDay
8,17.131853229172639
10,254520131.707154
1684,0.0
1721,618922361.8972102
2,1, 7,21, 0,12,40.00,50.00,SummerDesignDay
8,17.200807172194087
10,254520131.707154
1684,0.0
1721,635633748.580769
2,1, 7,21, 0,12,50.00,60.00,SummerDesignDay
8,17.269582116758607
10,254520131.707154
1684,0.0
1721,651892826.0502901
2,1, 7,21, 0,12, 0.00,60.00,SummerDesignDay
810,24.00000000000003
850,24.000000000000044
890,24.00000000000004
930,24.00000000000003
970,23.999999842922948
1010,23.99999971728032
1050,23.999999999999745
1090,23.99999999993247
1130,24.000000000000047
1170,24.000000000000015
1210,24.000000000000058
1250,24.000000000000033
1290,24.0
1330,23.999999997821605
1370,24.000000000000026
1410,23.999999999999998
1450,24.00000000000001
1490,24.000000000000005
1530,24.0
1570,24.0
2,1, 7,21, 0,13, 0.00,10.00,SummerDesignDay
8,17.32447360221357
10,253901386.8572815
1684,0.0
1721,673492437.0404607
2,1, 7,21, 0,13,10.00,20.00,SummerDesignDay
8,17.379251291230806
10,253901386.8572815
1684,0.0
1721,687174861.67168
2,1, 7,21, 0,13,20.00,30.00,SummerDesignDay
8,17.433921312061729
10,253901386.8572815
1684,0.0
1721,700467190.4824001
2,1, 7,21, 0,13,30.00,40.00,SummerDesignDay
8,17.488473222557489
10,253901386.8572815
1684,0.0
1721,713544522.6467818
2,1, 7,21, 0,13,40.00,50.00,SummerDesignDay
8,17.542913447755134
10,253901386.8572815
1684,0.0
1721,726240518.9515143
2,1, 7,21, 0,13,50.00,60.00,SummerDesignDay
8,17.59724609886134
10,253901386.8572815
1684,0.0
1721,738461468.9453163
2,1, 7,21, 0,13, 0.00,60.00,SummerDesignDay
810,24.000000000000115
850,24.00000000000003
890,24.00000000000004
930,24.000000000000019
970,23.999999999966918
1010,23.999999999941566
1050,24.000000000000058
1090,24.00000000000001
1130,24.0
1170,24.00000000000001
1210,24.000000000000005
1250,24.000000000000026
1290,24.000000000000019
1330,24.0
1370,24.000000000000033
1410,24.000000000000005
1450,24.000000000000005
1490,24.000000000000005
1530,24.000000000000005
1570,24.000000000000005
2,1, 7,21, 0,14, 0.00,10.00,SummerDesignDay
8,17.6311450462694
10,253901386.8572815
1684,0.0
1721,745546696.8450358
2,1, 7,21, 0,14,10.00,20.00,SummerDesignDay
8,17.665000449016245
10,253901386.8572815
1684,0.0
1721,753388334.8432375
2,1, 7,21, 0,14,20.00,30.00,SummerDesignDay
8,17.698812743128934
10,253901386.8572815
1684,0.0
1721,761061551.3518176
2,1, 7,21, 0,14,30.00,40.00,SummerDesignDay
8,17.732582050940107
10,253901386.8572815
1684,0.0
1721,768704987.7422911
2,1, 7,21, 0,14,40.00,50.00,SummerDesignDay
8,17.766307345121004
10,253901386.8572815
1684,0.0
1721,776363902.7661816
2,1, 7,21, 0,14,50.00,60.00,SummerDesignDay
8,17.79999023167558
10,253901386.8572815
1684,0.0
1721,783782486.0108502
2,1, 7,21, 0,14, 0.00,60.00,SummerDesignDay
810,24.000000000000186
850,24.000000000000044
890,24.00000000000004
930,24.000000000000019
970,23.99999999999997
1010,24.0
1050,24.000000000000076
1090,24.000000000000026
1130,24.000000000000044
1170,24.00000000000001
1210,24.00000000000003
1250,24.000000000000055
1290,24.00000000000001
1330,24.0
1370,24.00000000000004
1410,24.0
1450,24.000000000000015
1490,23.999999999999998
1530,24.00000000000001
1570,24.0
2,1, 7,21, 0,15, 0.00,10.00,SummerDesignDay
8,17.79999023167558
10,253901386.8572815
1684,0.0
1721,786108212.198147
2,1, 7,21, 0,15,10.00,20.00,SummerDesignDay
8,17.79999023167558
10,253901386.8572815
1684,0.0
1721,787493832.6145815
2,1, 7,21, 0,15,20.00,30.00,SummerDesignDay
8,17.79999023167558
10,253901386.8572815
1684,0.0
1721,788766495.4917472
2,1, 7,21, 0,15,30.00,40.00,SummerDesignDay
8,17.79999023167558
10,253901386.8572815
1684,0.0
1721,789860560.4310951
2,1, 7,21, 0,15,40.00,50.00,SummerDesignDay
8,17.79999023167558
10,253901386.8572815
1684,0.0
1721,790726371.1377498
2,1, 7,21, 0,15,50.00,60.00,SummerDesignDay
8,17.79999023167558
10,253901386.8572815
1684,0.0
1721,791305073.7062087
2,1, 7,21, 0,15, 0.00,60.00,SummerDesignDay
810,24.000000000000158
850,24.000000000000033
890,23.999999999999984
930,24.0
970,24.00000000000001
1010,24.00000000000001
1050,24.0
1090,24.000000000000019
1130,24.000000000000015
1170,24.000000000000055
1210,24.00000000000003
1250,24.000000000000015
1290,24.000000000000019
1330,24.000000000000005
1370,24.000000000000044
1410,23.99999999999999
1450,24.0
1490,24.0
1530,24.0
1570,24.00000000000001
2,1, 7,21, 0,16, 0.00,10.00,SummerDesignDay
8,17.759562446305357
10,253901386.8572815
1684,0.0
1721,781611113.9228414
2,1, 7,21, 0,16,10.00,20.00,SummerDesignDay
8,17.71907809634183
10,253901386.8572815
1684,0.0
1721,774047706.2513417
2,1, 7,21, 0,16,20.00,30.00,SummerDesignDay
8,17.67853788661001
10,253901386.8572815
1684,0.0
1721,765978002.8363252
2,1, 7,21, 0,16,30.00,40.00,SummerDesignDay
8,17.63791796367351
10,253901386.8572815
1684,0.0
1721,757560926.5854693
2,1, 7,21, 0,16,40.00,50.00,SummerDesignDay
8,17.59724609886134
10,253901386.8572815
1684,0.0
1721,748904902.5111091
2,1, 7,21, 0,16,50.00,60.00,SummerDesignDay
8,17.55650676726033
10,253901386.8572815
1684,0.0
1721,740018872.5753466
2,1, 7,21, 0,16, 0.00,60.00,SummerDesignDay
810,23.99999999999997
850,24.000000000000015
890,24.000000000000044
930,24.00000000000003
970,24.00000000000001
1010,24.00000000000001
1050,24.000000000000005
1090,24.000000000000019
1130,24.000000000000019
1170,24.00000000000003
1210,24.00000000000003
1250,24.00000000000004
1290,24.000000000000019
1330,23.999999999999998
1370,23.999999999999984
1410,24.000000000000019
1450,24.0
1490,23.999999999999987
1530,24.0
1570,24.0
2,1, 7,21, 0,17, 0.00,10.00,SummerDesignDay
8,17.50209486331892
10,252663897.15753649
1684,0.0
1721,732040966.9493213
2,1, 7,21, 0,17,10.00,20.00,SummerDesignDay
8,17.447570789624618
10,252663897.15753649
1684,0.0
1721,720329707.3390544
2,1, 7,21, 0,17,20.00,30.00,SummerDesignDay
8,17.392929544208135
10,252663897.15753649
1684,0.0
1721,708421841.2117612
2,1, 7,21, 0,17,30.00,40.00,SummerDesignDay
8,17.33818013976614
10,252663897.15753649
1684,0.0
1721,696263997.7293513
2,1, 7,21, 0,17,40.00,50.00,SummerDesignDay
8,17.283317298559309
10,252663897.15753649
1684,0.0
1721,683826499.9518924
2,1, 7,21, 0,17,50.00,60.00,SummerDesignDay
8,17.22833552437677
10,252663897.15753649
1684,0.0
1721,671117624.8801118
2,1, 7,21, 0,17, 0.00,60.00,SummerDesignDay
810,24.000000000000026
850,24.000000000000015
890,23.999999999999984
930,24.00000000000004
970,24.00000000000001
1010,24.0
1050,23.999999999999944
1090,24.000000000000015
1130,24.000000000000044
1170,24.0
1210,24.00000000000003
1250,24.0
1290,24.00000000000001
1330,24.000000000000005
1370,24.000000000000015
1410,24.000000000000019
1450,24.00000000000001
1490,24.000000000000005
1530,24.00000000000001
1570,24.00000000000001
2,1, 7,21, 0,18, 0.00,10.00,SummerDesignDay
8,17.159453019160176
10,243532723.15410776
1684,0.0
1721,646099397.9266626
2,1, 7,21, 0,18,10.00,20.00,SummerDesignDay
8,17.090391773337136
10,243532723.15410776
1684,0.0
1721,629777433.1425595
2,1, 7,21, 0,18,20.00,30.00,SummerDesignDay
8,17.021151077964786
10,243532723.15410776
1684,0.0
1721,613654813.7955171
2,1, 7,21, 0,18,30.00,40.00,SummerDesignDay
8,16.951729380464653
10,243532723.15410776
1684,0.0
1721,597226671.9385846
2,1, 7,21, 0,18,40.00,50.00,SummerDesignDay
8,16.882126503829249
10,243532723.15410776
1684,0.0
1721,580787982.0335361
2,1, 7,21, 0,18,50.00,60.00,SummerDesignDay
8,16.812341807494034
10,243532723.15410776
1684,0.0
1721,564369240.2395308
2,1, 7,21, 0,18, 0.00,60.00,SummerDesignDay
810,24.0
850,24.0
890,24.000000000000047
930,23.999999999999998
970,23.999999999999998
1010,24.00000000000001
1050,24.000000000000019
1090,23.999999999999948
1130,24.0
1170,24.00000000000004
1210,24.0
1250,24.00000000000001
1290,24.000000000000026
1330,24.00000000000001
1370,24.000000000000019
1410,24.000000000000033
1450,24.0
1490,24.000000000000015
1530,24.0
1570,23.999999999999998
2,1, 7,21, 0,19, 0.00,10.00,SummerDesignDay
8,16.707321072823203
10,197258108.28547693
1684,0.0
1721,505658254.254725
2,1, 7,21, 0,19,10.00,20.00,SummerDesignDay
8,16.601881826644556
10,197258108.28547693
1684,0.0
1721,479201567.54923298
2,1, 7,21, 0,19,20.00,30.00,SummerDesignDay
8,16.496030555252849
10,197258108.28547693
1684,0.0
1721,454413640.6863227
2,1, 7,21, 0,19,30.00,40.00,SummerDesignDay
8,16.389760181474104
10,197258108.28547693
1684,0.0
1721,429861395.6135587
2,1, 7,21, 0,19,40.00,50.00,SummerDesignDay
8,16.283067654262039
10,197258108.28547693
1684,0.0
1721,405592268.64684566
2,1, 7,21, 0,19,50.00,60.00,SummerDesignDay
8,16.17595057957811
10,197258108.28547693
1684,0.0
1721,381470875.53689268
2,1, 7,21, 0,19, 0.00,60.00,SummerDesignDay
810,24.000000000000047
850,24.00000000000003
890,24.0
930,24.000000000000019
970,23.999999999999976
1010,24.0
1050,24.0
1090,24.000000000000015
1130,24.000000000000026
1170,24.000000000000005
1210,24.0
1250,23.99999999999999
1290,23.999999999999998
1330,24.000000000000015
1370,24.000000000000019
1410,24.000000000000005
1450,24.000000000000015
1490,24.00000000000001
1530,24.00000000000001
1570,24.00000000000001
2,1, 7,21, 0,20, 0.00,10.00,SummerDesignDay
8,16.097123145563505
10,145221666.35735227
1684,0.0
1721,317525951.0865034
2,1, 7,21, 0,20,10.00,20.00,SummerDesignDay
8,16.018070242471564
10,145221666.35735227
1684,0.0
1721,295557454.522617
2,1, 7,21, 0,20,20.00,30.00,SummerDesignDay
8,15.938779752340516
10,145221666.35735227
1684,0.0
1721,275261756.40050706
2,1, 7,21, 0,20,30.00,40.00,SummerDesignDay
8,15.85926152575189
10,145221666.35735227
1684,0.0
1721,255437291.4438045
2,1, 7,21, 0,20,40.00,50.00,SummerDesignDay
8,15.779503718563929
10,145221666.35735227
1684,0.0
1721,238081842.66614969
2,1, 7,21, 0,20,50.00,60.00,SummerDesignDay
8,15.699515709672767
10,145221666.35735227
1684,0.0
1721,221428061.8096048
2,1, 7,21, 0,20, 0.00,60.00,SummerDesignDay
810,23.999999999999987
850,23.99999999999999
890,24.00000000000004
930,23.99999999999999
970,23.979165891538356
1010,23.949824537036734
1050,24.00000000000001
1090,24.00000000000003
1130,24.0
1170,24.000000000000015
1210,24.00000000000001
1250,24.000000000000019
1290,24.0
1330,24.000000000000005
1370,23.99999999999999
1410,24.000000000000015
1450,24.60834225394512
1490,24.000000000000026
1530,24.000000000000005
1570,24.0
2,1, 7,21, 0,21, 0.00,10.00,SummerDesignDay
8,15.63389147320404
10,135254249.3103697
1684,0.0
1721,202416503.34492896
2,1, 7,21, 0,21,10.00,20.00,SummerDesignDay
8,15.56810827419793
10,135254249.3103697
1684,0.0
1721,186347361.05803297
2,1, 7,21, 0,21,20.00,30.00,SummerDesignDay
8,15.502170882753524
10,135254249.3103697
1684,0.0
1721,170415849.78113634
2,1, 7,21, 0,21,30.00,40.00,SummerDesignDay
8,15.436068032613852
10,135254249.3103697
1684,0.0
1721,156413181.95806129
2,1, 7,21, 0,21,40.00,50.00,SummerDesignDay
8,15.369804371206009
10,135254249.3103697
1684,0.0
1721,143308360.60642777
2,1, 7,21, 0,21,50.00,60.00,SummerDesignDay
8,15.303384603594449
10,135254249.3103697
1684,0.0
1721,129986546.19583136
2,1, 7,21, 0,21, 0.00,60.00,SummerDesignDay
810,24.000000000000019
850,24.0
890,24.00000000000001
930,24.00000000000004
970,23.46231322147686
1010,23.338121677244179
1050,23.913666547628638
1090,23.999238878381765
1130,24.000000000000019
1170,24.0
1210,24.0
1250,24.000000000000033
1290,24.0
1330,24.000000000000005
1370,24.000000000000005
1410,24.000000000000019
1450,24.45888711929121
1490,24.00000000000001
1530,24.0
1570,24.0
2,1, 7,21, 0,22, 0.00,10.00,SummerDesignDay
8,15.236797685071274
10,64788585.765546549
1684,0.0
1721,43910102.32150965
2,1, 7,21, 0,22,10.00,20.00,SummerDesignDay
8,15.170047891787942
10,64788585.765546549
1684,0.0
1721,40489673.8311782