Program Version,EnergyPlus, Version 8.9.0-eba93e8e1b, YMD=2019.04.04 17:58
1,5,Environment Title[],Latitude[deg],Longitude[deg],Time Zone[],Elevation[m]
2,8,Day of Simulation[],Month[],Day of Month[],DST Indicator[1=yes 0=no],Hour[],StartMinute[],EndMinute[],DayType
3,5,Cumulative Day of Simulation[],Month[],Day of Month[],DST Indicator[1=yes 0=no],DayType  ! When Daily Report Variables Requested
4,2,Cumulative Days of Simulation[],Month[]  ! When Monthly Report Variables Requested
5,1,Cumulative Days of Simulation[] ! When Run Period Report Variables Requested
6,1,Calendar Year of Simulation[] ! When Annual Report Variables Requested
7,9,Environment,Site Outdoor Air Drybulb Temperature [C] !Monthly [Value,Min,Day,Hour,Minute,Max,Day,Hour,Minute]
8,1,Environment,Site Outdoor Air Wetbulb Temperature [C] !TimeStep
555,1,ALL_ST=HOTEL/MOTEL - LOBBY_FL=STORY 1_SCH=H,Zone Air Temperature [C] !Hourly
556,7,ALL_ST=HOTEL/MOTEL - LOBBY_FL=STORY 1_SCH=H,Zone Air Relative Humidity [%] !Daily [Value,Min,Hour,Minute,Max,Hour,Minute]
595,1,ALL_ST=HWAY LODGING - DINING_FL=STORY 1_SCH=B,Zone Air Temperature [C] !Hourly
596,7,ALL_ST=HWAY LODGING - DINING_FL=STORY 1_SCH=B,Zone Air Relative Humidity [%] !Daily [Value,Min,Hour,Minute,Max,Hour,Minute]
635,1,ALL_ST=LAB - CLASSROOMS_FL=STORY 1_SCH=D,Zone Air Temperature [C] !Hourly
636,7,ALL_ST=LAB - CLASSROOMS_FL=STORY 1_SCH=D,Zone Air Relative Humidity [%] !Daily [Value,Min,Hour,Minute,Max,Hour,Minute]
675,1,DU_BT=SPACE FUNCTION_ST=HOTEL/MOTEL - ROOMS_FL=STORY 1_SCHF,Zone Air Temperature [C] !Hourly
676,7,DU_BT=SPACE FUNCTION_ST=HOTEL/MOTEL - ROOMS_FL=STORY 1_SCHF,Zone Air Relative Humidity [%] !Daily [Value,Min,Hour,Minute,Max,Hour,Minute]
715,1,DU_BT=SPACE FUNCTION_ST=HWAY LODGING - ROOMS_FL=STORY 1_SCHF,Zone Air Temperature [C] !Hourly
716,7,DU_BT=SPACE FUNCTION_ST=HWAY LODGING - ROOMS_FL=STORY 1_SCHF,Zone Air Relative Humidity [%] !Daily [Value,Min,Hour,Minute,Max,Hour,Minute]
10,1,Electricity:Facility [J] !TimeStep
321,1,Gas:Facility [J] !TimeStep
End of Data Dictionary
1,FORT MCMURRAY AP ANN CLG .4% CONDNS DB=>MWB,  56.65,-111.22,  -7.00, 369.10
2,1, 7,21, 0, 1, 0.00,10.00,SummerDesignDay
8,14.218136923962174
10,51464034.55430957
321,51337014.557019729
2,1, 7,21, 0, 1,10.00,20.00,SummerDesignDay
8,14.171982153293495
10,50494207.23735687
321,51220936.84370046
2,1, 7,21, 0, 1,20.00,30.00,SummerDesignDay
8,14.125744780286427
10,50152661.82351596
321,53447120.5168828
2,1, 7,21, 0, 1,30.00,40.00,SummerDesignDay
8,14.079436086331978
10,49986040.50716383
321,68237736.16657377
2,1, 7,21, 0, 1,40.00,50.00,SummerDesignDay
8,14.033050387896898
10,49755520.8253613
321,67093642.5361811
2,1, 7,21, 0, 1,50.00,60.00,SummerDesignDay
8,13.986581233564835
10,49568540.94884881
321,56831962.27375224
2,1, 7,21, 0, 1, 0.00,60.00,SummerDesignDay
555,23.997466577096178
595,22.06863434388119
635,20.765038540320533
675,23.83763485607226
715,23.834978647702895
2,1, 7,21, 0, 2, 0.00,10.00,SummerDesignDay
8,13.95555882260429
10,41163934.68173174
321,61164452.71999968
2,1, 7,21, 0, 2,10.00,20.00,SummerDesignDay
8,13.924507755336454
10,40328206.8709262
321,38963909.4920131
2,1, 7,21, 0, 2,20.00,30.00,SummerDesignDay
8,13.893416042989206
10,40107550.65559302
321,63020399.165986228
2,1, 7,21, 0, 2,30.00,40.00,SummerDesignDay
8,13.862289589689029
10,39992394.77477805
321,50710512.99117128
2,1, 7,21, 0, 2,40.00,50.00,SummerDesignDay
8,13.831134407608739
10,39832901.770247939
321,54221313.86198727
2,1, 7,21, 0, 2,50.00,60.00,SummerDesignDay
8,13.799938415548118
10,39710534.79075782
321,65189931.203912418
2,1, 7,21, 0, 2, 0.00,60.00,SummerDesignDay
555,23.99753172890742
595,21.999585087073503
635,20.168831065105118
675,23.833498641868287
715,23.83017253944726
2,1, 7,21, 0, 3, 0.00,10.00,SummerDesignDay
8,13.776521671948676
10,34071868.056499358
321,25847855.219135599
2,1, 7,21, 0, 3,10.00,20.00,SummerDesignDay
8,13.753085235778466
10,34170795.39288245
321,25962950.825914429
2,1, 7,21, 0, 3,20.00,30.00,SummerDesignDay
8,13.729636002354969
10,34104431.12205663
321,26078815.760638454
2,1, 7,21, 0, 3,30.00,40.00,SummerDesignDay
8,13.706147375533054
10,35381906.313828188
321,26176964.502833059
2,1, 7,21, 0, 3,40.00,50.00,SummerDesignDay
8,13.682651961920304
10,33236676.844118369
321,26300603.299752118
2,1, 7,21, 0, 3,50.00,60.00,SummerDesignDay
8,13.659136670643687
10,34019296.203342188
321,26416072.294352395
2,1, 7,21, 0, 3, 0.00,60.00,SummerDesignDay
555,23.998346351816893
595,19.91808855463315
635,19.790165085138545
675,23.881146300118343
715,23.872985554710778
2,1, 7,21, 0, 4, 0.00,10.00,SummerDesignDay
8,13.63560137410855
10,30362122.843237025
321,26085122.810070095
2,1, 7,21, 0, 4,10.00,20.00,SummerDesignDay
8,13.612040802606578
10,29950726.90483379
321,4500218.9464652989
2,1, 7,21, 0, 4,20.00,30.00,SummerDesignDay
8,13.58846620506876
10,29811009.376778015
321,26231722.103791354
2,1, 7,21, 0, 4,30.00,40.00,SummerDesignDay
8,13.56487178447336
10,29710017.391061456
321,26377732.043468879
2,1, 7,21, 0, 4,40.00,50.00,SummerDesignDay
8,13.541257354069103
10,29610600.196454664
321,4844216.938393129
2,1, 7,21, 0, 4,50.00,60.00,SummerDesignDay
8,13.517617463812285
10,29518992.28195189
321,26573747.07927072
2,1, 7,21, 0, 4, 0.00,60.00,SummerDesignDay
555,23.99761314392458
595,18.870854208256274
635,19.48810468416124
675,23.812938741632235
715,23.755025559054915
2,1, 7,21, 0, 5, 0.00,10.00,SummerDesignDay
8,13.50185415824011
10,29450487.595132889
321,26682920.09884335
2,1, 7,21, 0, 5,10.00,20.00,SummerDesignDay
8,13.486076034032447
10,29382153.913063069
321,5115612.971757274
2,1, 7,21, 0, 5,20.00,30.00,SummerDesignDay
8,13.470289340350983
10,29319887.39386988
321,26804830.480536835
2,1, 7,21, 0, 5,30.00,40.00,SummerDesignDay
8,13.454493322631063
10,29256638.96938904
321,26907668.318876517
2,1, 7,21, 0, 5,40.00,50.00,SummerDesignDay
8,13.438688835118548
10,29191500.17020233
321,5344942.250561069
2,1, 7,21, 0, 5,50.00,60.00,SummerDesignDay
8,13.422888173889437
10,29130745.07484256
321,27031966.97770179
2,1, 7,21, 0, 5, 0.00,60.00,SummerDesignDay
555,23.997617304284295
595,18.522445693382843
635,19.236306022207037
675,23.745856875262473
715,23.62548723915428
2,1, 7,21, 0, 6, 0.00,10.00,SummerDesignDay
8,13.438688835118548
10,29170153.373295528
321,27451772.54297925
2,1, 7,21, 0, 6,10.00,20.00,SummerDesignDay
8,13.454493322631063
10,29208105.70642875
321,27432671.254472548
2,1, 7,21, 0, 6,20.00,30.00,SummerDesignDay
8,13.470289340350983
10,29248958.446742745
321,27356583.01689235
2,1, 7,21, 0, 6,30.00,40.00,SummerDesignDay
8,13.486076034032447
10,29290556.942087704
321,27280257.561415525
2,1, 7,21, 0, 6,40.00,50.00,SummerDesignDay
8,13.50185415824011
10,29332484.08028811
321,27203931.600123358
2,1, 7,21, 0, 6,50.00,60.00,SummerDesignDay
8,13.517617463812285
10,29376626.73710277
321,27127605.294087918
2,1, 7,21, 0, 6, 0.00,60.00,SummerDesignDay
555,23.99756102232078
595,18.427670975867686
635,19.13900583529046
675,23.75583810500361
715,23.619780834723757
2,1, 7,21, 0, 7, 0.00,10.00,SummerDesignDay
8,13.572736920571789
10,32547370.57765475
321,51080666.16944202
2,1, 7,21, 0, 7,10.00,20.00,SummerDesignDay
8,13.627748229152554
10,33429879.277124045
321,27728228.089526759
2,1, 7,21, 0, 7,20.00,30.00,SummerDesignDay
8,13.682651961920304
10,34140208.217341069
321,50761465.35928435
2,1, 7,21, 0, 7,30.00,40.00,SummerDesignDay
8,13.737448093244995
10,34051296.016741368
321,27212299.035040618
2,1, 7,21, 0, 7,40.00,50.00,SummerDesignDay
8,13.792137011831216
10,34293902.31404678
321,50219279.018794517
2,1, 7,21, 0, 7,50.00,60.00,SummerDesignDay
8,13.846719282840333
10,34503700.69385158
321,49970297.55475521
2,1, 7,21, 0, 7, 0.00,60.00,SummerDesignDay
555,23.997433182207847
595,18.739690376831189
635,19.36751231320577
675,23.825666233780919
715,23.807298364972895
2,1, 7,21, 0, 8, 0.00,10.00,SummerDesignDay
8,13.978831900527043
10,40840369.85135741
321,60062218.47760887
2,1, 7,21, 0, 8,10.00,20.00,SummerDesignDay
8,14.110321014287419
10,44142831.717460509
321,51184179.72637682
2,1, 7,21, 0, 8,20.00,30.00,SummerDesignDay
8,14.241191509616986
10,42392109.634338069
321,50544888.79995656
2,1, 7,21, 0, 8,30.00,40.00,SummerDesignDay
8,14.371447531304272
10,43718806.278860587
321,49905892.23861827
2,1, 7,21, 0, 8,40.00,50.00,SummerDesignDay
8,14.501093766564925
10,43944289.04114907
321,49266814.61769056
2,1, 7,21, 0, 8,50.00,60.00,SummerDesignDay
8,14.630134792273804
10,43917013.1180429
321,49108023.40081611
2,1, 7,21, 0, 8, 0.00,60.00,SummerDesignDay
555,23.997452642115367
595,19.681491875045507
635,20.42404333237771
675,23.848120081831899
715,23.843718489629074
2,1, 7,21, 0, 9, 0.00,10.00,SummerDesignDay
8,14.773641492809972
10,54017637.07623477
321,101336511.4691921
2,1, 7,21, 0, 9,10.00,20.00,SummerDesignDay
8,14.91640948124148
10,56664591.17413532
321,82141159.98039565
2,1, 7,21, 0, 9,20.00,30.00,SummerDesignDay
8,15.05843890714102
10,57647389.16455756
321,82141799.54109742
2,1, 7,21, 0, 9,30.00,40.00,SummerDesignDay
8,15.199735893563798
10,59059091.88114713
321,82158029.15073003
2,1, 7,21, 0, 9,40.00,50.00,SummerDesignDay
8,15.340306256439395
10,58495622.40139787
321,82146751.00267886
2,1, 7,21, 0, 9,50.00,60.00,SummerDesignDay
8,15.48015101768072
10,59403093.35436879
321,82143483.74505742
2,1, 7,21, 0, 9, 0.00,60.00,SummerDesignDay
555,23.998503494734448
595,21.22205893514923
635,22.876565859458116
675,23.910711967281558
715,23.908373854009729
2,1, 7,21, 0,10, 0.00,10.00,SummerDesignDay
8,15.60467292907716
10,85393555.91165142
321,81188483.20755239
2,1, 7,21, 0,10,10.00,20.00,SummerDesignDay
8,15.72862731650033
10,86707925.23673952
321,81058821.1211864
2,1, 7,21, 0,10,20.00,30.00,SummerDesignDay
8,15.852017409284228
10,87816294.68268383
321,81069393.9525646
2,1, 7,21, 0,10,30.00,40.00,SummerDesignDay
8,15.974848118364367
10,91042039.38914484
321,81040152.22667775
2,1, 7,21, 0,10,40.00,50.00,SummerDesignDay
8,16.097123145563505
10,91478359.30135064
321,76844841.14793599
2,1, 7,21, 0,10,50.00,60.00,SummerDesignDay
8,16.218846351168599
10,93287566.09467942
321,68309933.03558025
2,1, 7,21, 0,10, 0.00,60.00,SummerDesignDay
555,23.997939577320964
595,23.54799202432224
635,23.99506263822749
675,23.874041782131955
715,23.87205075862583
2,1, 7,21, 0,11, 0.00,10.00,SummerDesignDay
8,16.325793027093189
10,97078842.4419256
321,68654168.52512996
2,1, 7,21, 0,11,10.00,20.00,SummerDesignDay
8,16.432322158488288
10,97695588.05691114
321,78161492.36858247
2,1, 7,21, 0,11,20.00,30.00,SummerDesignDay
8,16.538424180249178
10,98784138.42418568
321,52611626.140103857
2,1, 7,21, 0,11,30.00,40.00,SummerDesignDay
8,16.644108396469087
10,99855585.92946634
321,77655372.96340496
2,1, 7,21, 0,11,40.00,50.00,SummerDesignDay
8,16.749376736593655
10,100902674.9525534
321,78162069.51886097
2,1, 7,21, 0,11,50.00,60.00,SummerDesignDay
8,16.854232613237156
10,101897524.83414777
321,52088159.66180036
2,1, 7,21, 0,11, 0.00,60.00,SummerDesignDay
555,23.997448456101293
595,23.9994350333484
635,23.997806958934534
675,23.83894943251596
715,23.836334323647859
2,1, 7,21, 0,12, 0.00,10.00,SummerDesignDay
8,16.92390823520069
10,102294758.93200046
321,76748424.49606529
2,1, 7,21, 0,12,10.00,20.00,SummerDesignDay
8,16.99340178950456
10,102789982.79696016
321,51047902.95047505
2,1, 7,21, 0,12,20.00,30.00,SummerDesignDay
8,17.06272006743463
10,103357611.6061199
321,76597538.69772792
2,1, 7,21, 0,12,30.00,40.00,SummerDesignDay
8,17.131853229172639
10,104031276.77936095
321,51042640.321028809
2,1, 7,21, 0,12,40.00,50.00,SummerDesignDay
8,17.200807172194087
10,104646000.24876738
321,76598846.7959723
2,1, 7,21, 0,12,50.00,60.00,SummerDesignDay
8,17.269582116758607
10,105265825.79800427
321,51037461.815985839
2,1, 7,21, 0,12, 0.00,60.00,SummerDesignDay
555,23.99756897858172
595,23.999380036314944
635,23.997402727700576
675,23.83811198995728
715,23.835575966895843
2,1, 7,21, 0,13, 0.00,10.00,SummerDesignDay
8,17.32447360221357
10,102660794.83916284
321,62344358.02885268
2,1, 7,21, 0,13,10.00,20.00,SummerDesignDay
8,17.379251291230806
10,102700280.92427898
321,62766088.581069577
2,1, 7,21, 0,13,20.00,30.00,SummerDesignDay
8,17.433921312061729
10,103132266.93100964
321,49973349.229083
2,1, 7,21, 0,13,30.00,40.00,SummerDesignDay
8,17.488473222557489
10,103815366.58478789
321,50005645.25384436
2,1, 7,21, 0,13,40.00,50.00,SummerDesignDay
8,17.542913447755134
10,104433498.43323544
321,75000764.999093
2,1, 7,21, 0,13,50.00,60.00,SummerDesignDay
8,17.59724609886134
10,105081986.67038517
321,49964907.429797548
2,1, 7,21, 0,13, 0.00,60.00,SummerDesignDay
555,23.99747037346347
595,23.999054214844706
635,23.99728006711189
675,23.835796409545965
715,23.83320353727154
2,1, 7,21, 0,14, 0.00,10.00,SummerDesignDay
8,17.6311450462694
10,105285321.81772201
321,70915747.0273148
2,1, 7,21, 0,14,10.00,20.00,SummerDesignDay
8,17.665000449016245
10,106231547.8622163
321,58199105.371968727
2,1, 7,21, 0,14,20.00,30.00,SummerDesignDay
8,17.698812743128934
10,106647085.73618676
321,77633010.30494224
2,1, 7,21, 0,14,30.00,40.00,SummerDesignDay
8,17.732582050940107
10,107048254.11538463
321,51737618.71249362
2,1, 7,21, 0,14,40.00,50.00,SummerDesignDay
8,17.766307345121004
10,107456037.33655764
321,77634411.41211182
2,1, 7,21, 0,14,50.00,60.00,SummerDesignDay
8,17.79999023167558
10,107868214.25961623
321,59647970.518625717
2,1, 7,21, 0,14, 0.00,60.00,SummerDesignDay
555,23.997317279361967
595,23.99882727477554
635,23.997158867232
675,23.835095907845653
715,23.83248702789901
2,1, 7,21, 0,15, 0.00,10.00,SummerDesignDay
8,17.79999023167558
10,107254801.63883338
321,67981210.40020444
2,1, 7,21, 0,15,10.00,20.00,SummerDesignDay
8,17.79999023167558
10,106719022.31453021
321,50310061.4386445
2,1, 7,21, 0,15,20.00,30.00,SummerDesignDay
8,17.79999023167558
10,106714141.96186626
321,70578935.07173148
2,1, 7,21, 0,15,30.00,40.00,SummerDesignDay
8,17.79999023167558
10,106701605.97587346
321,55217513.24926431
2,1, 7,21, 0,15,40.00,50.00,SummerDesignDay
8,17.79999023167558
10,106710038.10445301
321,50317257.24510755
2,1, 7,21, 0,15,50.00,60.00,SummerDesignDay
8,17.79999023167558
10,106697668.72961562
321,75502627.12915194
2,1, 7,21, 0,15, 0.00,60.00,SummerDesignDay
555,23.997266658723757
595,23.999067311984346
635,23.99713299858544
675,23.835066334434573
715,23.832466974103345
2,1, 7,21, 0,16, 0.00,10.00,SummerDesignDay
8,17.759562446305357
10,105597256.94070646
321,48514801.417176987
2,1, 7,21, 0,16,10.00,20.00,SummerDesignDay
8,17.71907809634183
10,104447419.67972577
321,48326980.98163419
2,1, 7,21, 0,16,20.00,30.00,SummerDesignDay
8,17.67853788661001
10,103962048.06407514
321,48327194.44840781
2,1, 7,21, 0,16,30.00,40.00,SummerDesignDay
8,17.63791796367351
10,103469941.84906148
321,48326883.45826978
2,1, 7,21, 0,16,40.00,50.00,SummerDesignDay
8,17.59724609886134
10,102980363.23869106
321,48326537.46800789
2,1, 7,21, 0,16,50.00,60.00,SummerDesignDay
8,17.55650676726033
10,102491987.65353486
321,48326192.274222958
2,1, 7,21, 0,16, 0.00,60.00,SummerDesignDay
555,23.997256369812687
595,23.999458830569826
635,23.99712965701551
675,23.835107094196294
715,23.832489845812679
2,1, 7,21, 0,17, 0.00,10.00,SummerDesignDay
8,17.50209486331892
10,94542369.03274328
321,24682952.53410398
2,1, 7,21, 0,17,10.00,20.00,SummerDesignDay
8,17.447570789624618
10,93620574.5971714
321,46709646.34641027
2,1, 7,21, 0,17,20.00,30.00,SummerDesignDay
8,17.392929544208135
10,93053745.74931875
321,47568409.13889069
2,1, 7,21, 0,17,30.00,40.00,SummerDesignDay
8,17.33818013976614
10,92528773.73587623
321,47569426.17590028
2,1, 7,21, 0,17,40.00,50.00,SummerDesignDay
8,17.283317298559309
10,92027271.64299654
321,47570552.375276397
2,1, 7,21, 0,17,50.00,60.00,SummerDesignDay
8,17.22833552437677
10,91526029.18458604
321,47571448.50741985
2,1, 7,21, 0,17, 0.00,60.00,SummerDesignDay
555,23.99724456425476
595,23.999720825187639
635,23.99800612453271
675,23.835241762197197
715,23.83267593513899
2,1, 7,21, 0,18, 0.00,10.00,SummerDesignDay
8,17.159453019160176
10,83984031.10664267
321,23361157.728925855
2,1, 7,21, 0,18,10.00,20.00,SummerDesignDay
8,17.090391773337136
10,83045821.74723217
321,46655672.61859827
2,1, 7,21, 0,18,20.00,30.00,SummerDesignDay
8,17.021151077964786
10,82399730.59888497
321,28188661.64932391
2,1, 7,21, 0,18,30.00,40.00,SummerDesignDay
8,16.951729380464653
10,81717745.44282465
321,41797732.01115938
2,1, 7,21, 0,18,40.00,50.00,SummerDesignDay
8,16.882126503829249
10,81080207.72226192
321,46661637.640613798
2,1, 7,21, 0,18,50.00,60.00,SummerDesignDay
8,16.812341807494034
10,80414253.35696939
321,23329528.016220448
2,1, 7,21, 0,18, 0.00,60.00,SummerDesignDay
555,23.997138690475756
595,23.99968466394071
635,23.999025148049033
675,23.83541824805458
715,23.832984272435075
2,1, 7,21, 0,19, 0.00,10.00,SummerDesignDay
8,16.707321072823203
10,79980571.27218247
321,47326772.663924988
2,1, 7,21, 0,19,10.00,20.00,SummerDesignDay
8,16.601881826644556
10,79188201.05398745
321,47401152.07223399
2,1, 7,21, 0,19,20.00,30.00,SummerDesignDay
8,16.496030555252849
10,78179914.01882798
321,47405058.84311867
2,1, 7,21, 0,19,30.00,40.00,SummerDesignDay
8,16.389760181474104
10,77157019.65830729
321,32655814.687707489
2,1, 7,21, 0,19,40.00,50.00,SummerDesignDay
8,16.283067654262039
10,76114918.12046628
321,38443806.015037
2,1, 7,21, 0,19,50.00,60.00,SummerDesignDay
8,16.17595057957811
10,75061386.51019694
321,47398733.49003856
2,1, 7,21, 0,19, 0.00,60.00,SummerDesignDay
555,23.997008757349844
595,23.999383430033068
635,23.999393787127884
675,23.835323486376568
715,23.832867710168647
2,1, 7,21, 0,20, 0.00,10.00,SummerDesignDay
8,16.097123145563505
10,97377985.53991932
321,50037355.83685425
2,1, 7,21, 0,20,10.00,20.00,SummerDesignDay
8,16.018070242471564
10,98104535.79210943
321,75518133.72680412
2,1, 7,21, 0,20,20.00,30.00,SummerDesignDay
8,15.938779752340516
10,97562662.78807113
321,50314702.143457148
2,1, 7,21, 0,20,30.00,40.00,SummerDesignDay
8,15.85926152575189
10,96738231.87279108
321,54907962.059319678
2,1, 7,21, 0,20,40.00,50.00,SummerDesignDay
8,15.779503718563929
10,96018804.85166724
321,70946645.58512324
2,1, 7,21, 0,20,50.00,60.00,SummerDesignDay
8,15.699515709672767
10,95246766.47415097
321,50321303.16422762
2,1, 7,21, 0,20, 0.00,60.00,SummerDesignDay
555,23.997005286712765
595,23.998946844863725
635,23.99893749344962
675,23.840758941423905
715,23.83844555296709
2,1, 7,21, 0,21, 0.00,10.00,SummerDesignDay
8,15.63389147320404
10,102496324.24300607
321,80985631.09688053
2,1, 7,21, 0,21,10.00,20.00,SummerDesignDay
8,15.56810827419793
10,103037974.13829732
321,81636229.2890431
2,1, 7,21, 0,21,20.00,30.00,SummerDesignDay
8,15.502170882753524
10,102383025.77044374
321,81631866.84178676
2,1, 7,21, 0,21,30.00,40.00,SummerDesignDay
8,15.436068032613852
10,101648577.56156887
321,81627275.2449471
2,1, 7,21, 0,21,40.00,50.00,SummerDesignDay
8,15.369804371206009
10,100932662.15811329
321,81622660.96756417
2,1, 7,21, 0,21,50.00,60.00,SummerDesignDay
8,15.303384603594449
10,100185097.17685239
321,81618036.73457875
2,1, 7,21, 0,21, 0.00,60.00,SummerDesignDay
555,23.9970643275789
595,23.99861807088008
635,23.998925344854429
675,23.843445919008404
715,23.84108385200585
2,1, 7,21, 0,22, 0.00,10.00,SummerDesignDay
8,15.236797685071274
10,102946977.39551577
321,75065485.91465107
2,1, 7,21, 0,22,10.00,20.00,SummerDesignDay
8,15.170047891787942
10,102120668.25947702
321,64779679.77587001
2,1, 7,21, 0,22,20.00,30.00,SummerDesignDay
8,15.103134826860483
10,101353321.45861092
321,75498983.1366277
2,1, 7,21, 0,22,30.00,40.00,SummerDesignDay
8,15.036063385178485
10,100558109.53559286
321,80744503.18609911
2,1, 7,21, 0,22,40.00,50.00,SummerDesignDay
8,14.968821767219835
10,99752900.28390542
321,80737225.38978838
2,1, 7,21, 0,22,50.00,60.00,SummerDesignDay
8,14.90141525878635
10,98872581.42491453
321,80730173.01469204
2,1, 7,21, 0,22, 0.00,60.00,SummerDesignDay
555,23.997124473148607
595,23.99947778619503
635,23.999083666773598
675,23.844594535561475
715,23.842181143057159
2,1, 7,21, 0,23, 0.00,10.00,SummerDesignDay
8,14.848873673278373
10,79636717.72307064
321,80234869.82051511
2,1, 7,21, 0,23,10.00,20.00,SummerDesignDay
8,14.796237168136719
10,79316505.06806936
321,68016835.15173152
2,1, 7,21, 0,23,20.00,30.00,SummerDesignDay
8,14.743494321455645
10,79015346.28621784
321,65607374.06030572
2,1, 7,21, 0,23,30.00,40.00,SummerDesignDay
8,14.690649975253665
10,78740274.46959041
321,80200106.51910724
2,1, 7,21, 0,23,40.00,50.00,SummerDesignDay
8,14.637704281233117
10,78418086.84366586
321,80191478.55278819
2,1, 7,21, 0,23,50.00,60.00,SummerDesignDay
8,14.584656914839757
10,78249106.95754701
321,80184292.65452399
2,1, 7,21, 0,23, 0.00,60.00,SummerDesignDay
555,23.997208422447455
595,23.568149450788935
635,23.54564974483119
675,23.844560275138197
715,23.84212984605955
2,1, 7,21, 0,24, 0.00,10.00,SummerDesignDay
8,14.531507212058875
10,63150305.426605809
321,77539397.13943035
2,1, 7,21, 0,24,10.00,20.00,SummerDesignDay
8,14.47825496413355
10,63005315.5165551
321,58784116.4916227
2,1, 7,21, 0,24,20.00,30.00,SummerDesignDay
8,14.4249000133173
10,62952818.84273725
321,78325894.93733017
2,1, 7,21, 0,24,30.00,40.00,SummerDesignDay
8,14.371447531304272
10,63806416.47091607
321,80923798.85626349
2,1, 7,21, 0,24,40.00,50.00,SummerDesignDay
8,14.31788619902223
10,62196374.115547288
321,81181958.97626081
2,1, 7,21, 0,24,50.00,60.00,SummerDesignDay
8,14.264220970176066
10,62579845.46026389
321,81442182.12084823
2,1, 7,21, 0,24, 0.00,60.00,SummerDesignDay
555,23.997959284458195
595,22.74988834809111
635,21.908778815025433
675,23.87690464907476
715,23.875194599989837
3,1, 7,21, 0,SummerDesignDay
556,51.56475086860164,49.33459268166114,23,30,53.63087111492568,17,20
596,52.6811637143494,46.5648962628059,18,60,63.95126424441059, 6,20
636,52.020840999685258,45.03863209215888,22,60,61.192933617492219, 6,20
676,60.61955817335954,55.42352005181447,22,60,65.46757002987495,10,40
716,61.67263433080576,56.8383459133726,22,60,66.85898078827097,10,40
4,1, 7
7,22.2505,16.5,21, 5,60,28.9,21,14,60
1,FORT MCMURRAY AP ANN HTG 99.6% CONDNS DB,  56.65,-111.22,  -7.00, 369.10
2,1, 1,21, 0, 1, 0.00,10.00,WinterDesignDay
8,-36.2
10,43570291.69578595
321,811827160.5324911
2,1, 1,21, 0, 1,10.00,20.00,WinterDesignDay
8,-36.2
10,43571339.72202262
321,840270106.1587705
2,1, 1,21, 0, 1,20.00,30.00,WinterDesignDay
8,-36.2
10,43562059.70270264
321,814949362.581344
2,1, 1,21, 0, 1,30.00,40.00,WinterDesignDay
8,-36.2
10,43555744.85490405
321,840838711.5190784
2,1, 1,21, 0, 1,40.00,50.00,WinterDesignDay
8,-36.2
10,43553810.0871853
321,815370116.4763324
2,1, 1,21, 0, 1,50.00,60.00,WinterDesignDay
8,-36.2
10,43551951.14780919
321,841167849.2663856
2,1, 1,21, 0, 1, 0.00,60.00,WinterDesignDay
555,22.050045170706399
595,21.99919963743785
635,17.999964934778246
675,23.835445698053048
715,23.836366306696858
2,1, 1,21, 0, 2, 0.00,10.00,WinterDesignDay
8,-36.2
10,35975295.72967251
321,818422028.3195558
2,1, 1,21, 0, 2,10.00,20.00,WinterDesignDay
8,-36.2
10,35958166.21032023
321,804422595.3524163
2,1, 1,21, 0, 2,20.00,30.00,WinterDesignDay
8,-36.2
10,35958166.21032023
321,809549600.1328788
2,1, 1,21, 0, 2,30.00,40.00,WinterDesignDay
8,-36.2
10,35958166.21032023
321,819125507.2081888
2,1, 1,21, 0, 2,40.00,50.00,WinterDesignDay
8,-36.2
10,35958166.21032023
321,819236635.3674234
2,1, 1,21, 0, 2,50.00,60.00,WinterDesignDay
8,-36.2
10,35958166.21032023
321,819329314.0382429
2,1, 1,21, 0, 2, 0.00,60.00,WinterDesignDay
555,21.949879134909627
595,21.999709455162337
635,17.999974861080536
675,23.785527958052215
715,23.68549400542169
2,1, 1,21, 0, 3, 0.00,10.00,WinterDesignDay
8,-36.2
10,31233205.53196137
321,747902245.0152942
2,1, 1,21, 0, 3,10.00,20.00,WinterDesignDay
8,-36.2
10,31233205.53196137
321,758855162.6630006
2,1, 1,21, 0, 3,20.00,30.00,WinterDesignDay
8,-36.2
10,31233205.53196137
321,795388957.5349827
2,1, 1,21, 0, 3,30.00,40.00,WinterDesignDay
8,-36.2
10,31233205.53196137
321,775416604.6242126
2,1, 1,21, 0, 3,40.00,50.00,WinterDesignDay
8,-36.2
10,31233205.53196137
321,769618622.7859297
2,1, 1,21, 0, 3,50.00,60.00,WinterDesignDay
8,-36.2
10,31233205.53196137
321,770355904.3474113
2,1, 1,21, 0, 3, 0.00,60.00,WinterDesignDay
555,21.86683245703155
595,18.371112556272356
635,17.999983537650789
675,23.594953754941004
715,23.361342719793556
2,1, 1,21, 0, 4, 0.00,10.00,WinterDesignDay
8,-36.2
10,28420728.93943006
321,770079439.1863921
2,1, 1,21, 0, 4,10.00,20.00,WinterDesignDay
8,-36.2
10,28420728.93943006
321,770255249.1063452
2,1, 1,21, 0, 4,20.00,30.00,WinterDesignDay
8,-36.2
10,28420728.93943006
321,748640805.5629672
2,1, 1,21, 0, 4,30.00,40.00,WinterDesignDay
8,-36.2
10,28420728.93943006
321,770596872.8502158
2,1, 1,21, 0, 4,40.00,50.00,WinterDesignDay
8,-36.2
10,28420728.93943006
321,770747985.7255014
2,1, 1,21, 0, 4,50.00,60.00,WinterDesignDay
8,-36.2
10,28420728.93943006
321,770891371.5033056
2,1, 1,21, 0, 4, 0.00,60.00,WinterDesignDay
555,21.752329608678367
595,17.999976251311336
635,17.999977252413406
675,23.05343875733257
715,22.83959837838394
2,1, 1,21, 0, 5, 0.00,10.00,WinterDesignDay
8,-36.2
10,28420728.93943006
321,771016762.4022446
2,1, 1,21, 0, 5,10.00,20.00,WinterDesignDay
8,-36.2
10,28420728.93943006
321,749303006.0333058
2,1, 1,21, 0, 5,20.00,30.00,WinterDesignDay
8,-36.2
10,28420728.93943006
321,771174935.3686986
2,1, 1,21, 0, 5,30.00,40.00,WinterDesignDay
8,-36.2
10,28420728.93943006
321,771257475.2929089
2,1, 1,21, 0, 5,40.00,50.00,WinterDesignDay
8,-36.2
10,28420728.93943006
321,771334436.1093906
2,1, 1,21, 0, 5,50.00,60.00,WinterDesignDay
8,-36.2
10,28420728.93943006
321,771402789.7748166
2,1, 1,21, 0, 5, 0.00,60.00,WinterDesignDay
555,21.673892516741434
595,17.99998338925991
635,17.99997804895963
675,22.620959362740867
715,22.450835351414839
2,1, 1,21, 0, 6, 0.00,10.00,WinterDesignDay
8,-36.2
10,28420728.93943006
321,771984683.6392343
2,1, 1,21, 0, 6,10.00,20.00,WinterDesignDay
8,-36.2
10,28420728.93943006
321,772087490.1591667
2,1, 1,21, 0, 6,20.00,30.00,WinterDesignDay
8,-36.2
10,28420728.93943006
321,772128145.8536214
2,1, 1,21, 0, 6,30.00,40.00,WinterDesignDay
8,-36.2
10,28420728.93943006
321,772167374.9062935
2,1, 1,21, 0, 6,40.00,50.00,WinterDesignDay
8,-36.2
10,28420728.93943006
321,772202748.7430812
2,1, 1,21, 0, 6,50.00,60.00,WinterDesignDay
8,-36.2
10,28420728.93943006
321,784946738.5208966
2,1, 1,21, 0, 6, 0.00,60.00,WinterDesignDay
555,21.631761710611927
595,17.999984144434916
635,17.999978500713753
675,22.53337176757432
715,22.376776933682725
2,1, 1,21, 0, 7, 0.00,10.00,WinterDesignDay
8,-36.2
10,31233205.53196137
321,783695646.9505218
2,1, 1,21, 0, 7,10.00,20.00,WinterDesignDay
8,-36.2
10,31233205.53196137
321,797390150.6263722
2,1, 1,21, 0, 7,20.00,30.00,WinterDesignDay
8,-36.2
10,31233205.53196137
321,797369848.5410719
2,1, 1,21, 0, 7,30.00,40.00,WinterDesignDay
8,-36.2
10,31233205.53196137
321,797341455.2997722
2,1, 1,21, 0, 7,40.00,50.00,WinterDesignDay
8,-36.2
10,31233205.53196137
321,797304165.5961534
2,1, 1,21, 0, 7,50.00,60.00,WinterDesignDay
8,-36.2
10,31233205.53196137
321,781469483.2264387
2,1, 1,21, 0, 7, 0.00,60.00,WinterDesignDay
555,21.61641107408656
595,17.9999842260293
635,17.999978522671669
675,22.928674694436198
715,22.717021258227985
2,1, 1,21, 0, 8, 0.00,10.00,WinterDesignDay
8,-36.2
10,36858158.717024009
321,851981609.285105
2,1, 1,21, 0, 8,10.00,20.00,WinterDesignDay
8,-36.2
10,36858158.717024009
321,791956137.9731085
2,1, 1,21, 0, 8,20.00,30.00,WinterDesignDay
8,-36.2
10,36858158.717024009
321,841412459.7747564
2,1, 1,21, 0, 8,30.00,40.00,WinterDesignDay
8,-36.2
10,36897042.936795819
321,811535434.794931
2,1, 1,21, 0, 8,40.00,50.00,WinterDesignDay
8,-36.2
10,36909583.38945918
321,828320931.756229
2,1, 1,21, 0, 8,50.00,60.00,WinterDesignDay
8,-36.2
10,36896881.052969578
321,818540027.1805712
2,1, 1,21, 0, 8, 0.00,60.00,WinterDesignDay
555,21.641114284983716
595,17.99998640006457
635,19.975940972635539
675,23.674681269196783
715,23.40867496648639
2,1, 1,21, 0, 9, 0.00,10.00,WinterDesignDay
8,-36.2
10,47341304.445327337
321,920029494.6753358
2,1, 1,21, 0, 9,10.00,20.00,WinterDesignDay
8,-36.2
10,47484600.931619379
321,836274567.6522869
2,1, 1,21, 0, 9,20.00,30.00,WinterDesignDay
8,-36.2
10,47429994.665674369
321,893198607.888033
2,1, 1,21, 0, 9,30.00,40.00,WinterDesignDay
8,-36.2
10,47454773.45438242
321,865179767.9488182
2,1, 1,21, 0, 9,40.00,50.00,WinterDesignDay
8,-36.2
10,47458025.38629886
321,865889504.7160449
2,1, 1,21, 0, 9,50.00,60.00,WinterDesignDay
8,-36.2
10,47460206.774823058
321,888933388.6940643
2,1, 1,21, 0, 9, 0.00,60.00,WinterDesignDay
555,22.08162807164918
595,19.977255844747576
635,21.971585680641569
675,23.850211104004534
715,23.829620434438057
2,1, 1,21, 0,10, 0.00,10.00,WinterDesignDay
8,-36.2
10,67645698.31354316
321,879414984.7078171
2,1, 1,21, 0,10,10.00,20.00,WinterDesignDay
8,-36.2
10,67768346.83274839
321,828724386.528928
2,1, 1,21, 0,10,20.00,30.00,WinterDesignDay
8,-36.2
10,67626540.78829706
321,852630891.5739113
2,1, 1,21, 0,10,30.00,40.00,WinterDesignDay
8,-36.2
10,67683196.82249043
321,855074824.8847219
2,1, 1,21, 0,10,40.00,50.00,WinterDesignDay
8,-36.2
10,67678536.09190582
321,868025673.0765151
2,1, 1,21, 0,10,50.00,60.00,WinterDesignDay
8,-36.2
10,67679855.97110978
321,846515905.7222953
2,1, 1,21, 0,10, 0.00,60.00,WinterDesignDay
555,22.002801607661966
595,21.975226988547776
635,21.99877764297783
675,23.85219528681381
715,23.853439431315818
2,1, 1,21, 0,11, 0.00,10.00,WinterDesignDay
8,-36.2
10,70023343.05017136
321,840105462.6697866
2,1, 1,21, 0,11,10.00,20.00,WinterDesignDay
8,-36.2
10,69989161.16261739
321,838722259.4590885
2,1, 1,21, 0,11,20.00,30.00,WinterDesignDay
8,-36.2
10,69991615.9337598
321,838665792.6584947
2,1, 1,21, 0,11,30.00,40.00,WinterDesignDay
8,-36.2
10,69992154.54221788
321,838570377.5969302
2,1, 1,21, 0,11,40.00,50.00,WinterDesignDay
8,-36.2
10,69993237.8866193
321,837092517.6658504
2,1, 1,21, 0,11,50.00,60.00,WinterDesignDay
8,-36.2
10,69993982.67484375
321,832766580.4381716
2,1, 1,21, 0,11, 0.00,60.00,WinterDesignDay
555,22.063504476559034
595,21.99955928388539
635,22.033717014449015
675,23.83293259607493
715,23.83766649139996