Program Version,EnergyPlus, Version 8.9.0-eba93e8e1b, YMD=2019.03.19 18:35
1,5,Environment Title[],Latitude[deg],Longitude[deg],Time Zone[],Elevation[m]
2,8,Day of Simulation[],Month[],Day of Month[],DST Indicator[1=yes 0=no],Hour[],StartMinute[],EndMinute[],DayType
3,5,Cumulative Day of Simulation[],Month[],Day of Month[],DST Indicator[1=yes 0=no],DayType  ! When Daily Report Variables Requested
4,2,Cumulative Days of Simulation[],Month[]  ! When Monthly Report Variables Requested
5,1,Cumulative Days of Simulation[] ! When Run Period Report Variables Requested
6,1,Calendar Year of Simulation[] ! When Annual Report Variables Requested
7,9,Environment,Site Outdoor Air Drybulb Temperature [C] !Monthly [Value,Min,Day,Hour,Minute,Max,Day,Hour,Minute]
8,1,Environment,Site Outdoor Air Wetbulb Temperature [C] !TimeStep
1125,1,ALL_ST=WHOLEBUILDING_FL=STORY 1_SCH=A,Zone Air Temperature [C] !Hourly
1126,7,ALL_ST=WHOLEBUILDING_FL=STORY 1_SCH=A,Zone Air Relative Humidity [%] !Daily [Value,Min,Hour,Minute,Max,Hour,Minute]
1165,1,ALL_ST=WHOLEBUILDING_FL=STORY 1_SCH=A 1,Zone Air Temperature [C] !Hourly
1166,7,ALL_ST=WHOLEBUILDING_FL=STORY 1_SCH=A 1,Zone Air Relative Humidity [%] !Daily [Value,Min,Hour,Minute,Max,Hour,Minute]
1205,1,ALL_ST=WHOLEBUILDING_FL=STORY 1_SCH=B,Zone Air Temperature [C] !Hourly
1206,7,ALL_ST=WHOLEBUILDING_FL=STORY 1_SCH=B,Zone Air Relative Humidity [%] !Daily [Value,Min,Hour,Minute,Max,Hour,Minute]
1245,1,ALL_ST=WHOLEBUILDING_FL=STORY 2_SCH=A,Zone Air Temperature [C] !Hourly
1246,7,ALL_ST=WHOLEBUILDING_FL=STORY 2_SCH=A,Zone Air Relative Humidity [%] !Daily [Value,Min,Hour,Minute,Max,Hour,Minute]
1285,1,ALL_ST=WHOLEBUILDING_FL=STORY 2_SCH=C,Zone Air Temperature [C] !Hourly
1286,7,ALL_ST=WHOLEBUILDING_FL=STORY 2_SCH=C,Zone Air Relative Humidity [%] !Daily [Value,Min,Hour,Minute,Max,Hour,Minute]
1325,1,ALL_ST=WHOLEBUILDING_FL=STORY 2_SCH=C 1,Zone Air Temperature [C] !Hourly
1326,7,ALL_ST=WHOLEBUILDING_FL=STORY 2_SCH=C 1,Zone Air Relative Humidity [%] !Daily [Value,Min,Hour,Minute,Max,Hour,Minute]
1365,1,ALL_ST=WHOLEBUILDING_FL=STORY 2_SCH=C 2,Zone Air Temperature [C] !Hourly
1366,7,ALL_ST=WHOLEBUILDING_FL=STORY 2_SCH=C 2,Zone Air Relative Humidity [%] !Daily [Value,Min,Hour,Minute,Max,Hour,Minute]
1405,1,ALL_ST=WHOLEBUILDING_FL=STORY 2_SCH=H,Zone Air Temperature [C] !Hourly
1406,7,ALL_ST=WHOLEBUILDING_FL=STORY 2_SCH=H,Zone Air Relative Humidity [%] !Daily [Value,Min,Hour,Minute,Max,Hour,Minute]
1445,1,ALL_ST=WHOLEBUILDING_FL=STORY 3_SCH=B,Zone Air Temperature [C] !Hourly
1446,7,ALL_ST=WHOLEBUILDING_FL=STORY 3_SCH=B,Zone Air Relative Humidity [%] !Daily [Value,Min,Hour,Minute,Max,Hour,Minute]
1485,1,ALL_ST=WHOLEBUILDING_FL=STORY 3_SCH=B 1,Zone Air Temperature [C] !Hourly
1486,7,ALL_ST=WHOLEBUILDING_FL=STORY 3_SCH=B 1,Zone Air Relative Humidity [%] !Daily [Value,Min,Hour,Minute,Max,Hour,Minute]
1525,1,ALL_ST=WHOLEBUILDING_FL=STORY 3_SCH=B 2,Zone Air Temperature [C] !Hourly
1526,7,ALL_ST=WHOLEBUILDING_FL=STORY 3_SCH=B 2,Zone Air Relative Humidity [%] !Daily [Value,Min,Hour,Minute,Max,Hour,Minute]
1565,1,ALL_ST=WHOLEBUILDING_FL=STORY 3_SCH=C,Zone Air Temperature [C] !Hourly
1566,7,ALL_ST=WHOLEBUILDING_FL=STORY 3_SCH=C,Zone Air Relative Humidity [%] !Daily [Value,Min,Hour,Minute,Max,Hour,Minute]
1605,1,ALL_ST=WHOLEBUILDING_FL=STORY 4_SCH=A,Zone Air Temperature [C] !Hourly
1606,7,ALL_ST=WHOLEBUILDING_FL=STORY 4_SCH=A,Zone Air Relative Humidity [%] !Daily [Value,Min,Hour,Minute,Max,Hour,Minute]
1645,1,ALL_ST=WHOLEBUILDING_FL=STORY 4_SCH=B,Zone Air Temperature [C] !Hourly
1646,7,ALL_ST=WHOLEBUILDING_FL=STORY 4_SCH=B,Zone Air Relative Humidity [%] !Daily [Value,Min,Hour,Minute,Max,Hour,Minute]
1685,1,ALL_ST=WHOLEBUILDING_FL=STORY 4_SCH=E,Zone Air Temperature [C] !Hourly
1686,7,ALL_ST=WHOLEBUILDING_FL=STORY 4_SCH=E,Zone Air Relative Humidity [%] !Daily [Value,Min,Hour,Minute,Max,Hour,Minute]
1725,1,ALL_ST=WHOLEBUILDING_FL=STORY 4_SCH=F,Zone Air Temperature [C] !Hourly
1726,7,ALL_ST=WHOLEBUILDING_FL=STORY 4_SCH=F,Zone Air Relative Humidity [%] !Daily [Value,Min,Hour,Minute,Max,Hour,Minute]
1765,1,DU_BT=DORMITORY_ST=WHOLEBUILDING_FL=STORY 1_SCHG,Zone Air Temperature [C] !Hourly
1766,7,DU_BT=DORMITORY_ST=WHOLEBUILDING_FL=STORY 1_SCHG,Zone Air Relative Humidity [%] !Daily [Value,Min,Hour,Minute,Max,Hour,Minute]
1805,1,DU_BT=HOTEL_ST=WHOLEBUILDING_FL=STORY 1_SCHF,Zone Air Temperature [C] !Hourly
1806,7,DU_BT=HOTEL_ST=WHOLEBUILDING_FL=STORY 1_SCHF,Zone Air Relative Humidity [%] !Daily [Value,Min,Hour,Minute,Max,Hour,Minute]
1845,1,DU_BT=MOTEL_ST=WHOLEBUILDING_FL=STORY 4_SCHF,Zone Air Temperature [C] !Hourly
1846,7,DU_BT=MOTEL_ST=WHOLEBUILDING_FL=STORY 4_SCHF,Zone Air Relative Humidity [%] !Daily [Value,Min,Hour,Minute,Max,Hour,Minute]
1885,1,DU_BT=MULTI-UNIT RESIDENTIAL_ST=WHOLEBUILDING_FL=STORY 3_SCHG,Zone Air Temperature [C] !Hourly
1886,7,DU_BT=MULTI-UNIT RESIDENTIAL_ST=WHOLEBUILDING_FL=STORY 3_SCHG,Zone Air Relative Humidity [%] !Daily [Value,Min,Hour,Minute,Max,Hour,Minute]
10,1,Electricity:Facility [J] !TimeStep
891,1,Gas:Facility [J] !TimeStep
End of Data Dictionary
1,FORT MCMURRAY AP ANN CLG .4% CONDNS DB=>MWB,  56.65,-111.22,  -7.00, 369.10
2,1, 7,21, 0, 1, 0.00,10.00,SummerDesignDay
8,14.218136923962174
10,172311263.21855054
891,106467172.06835458
2,1, 7,21, 0, 1,10.00,20.00,SummerDesignDay
8,14.171982153293495
10,169519632.8869474
891,95705114.60194719
2,1, 7,21, 0, 1,20.00,30.00,SummerDesignDay
8,14.125744780286427
10,168653946.4047402
891,95466343.01319833
2,1, 7,21, 0, 1,30.00,40.00,SummerDesignDay
8,14.079436086331978
10,167816032.3678588
891,95167431.97187588
2,1, 7,21, 0, 1,40.00,50.00,SummerDesignDay
8,14.033050387896898
10,166983800.2238188
891,108760845.97062108
2,1, 7,21, 0, 1,50.00,60.00,SummerDesignDay
8,13.986581233564835
10,166163204.16914506
891,111164754.17344915
2,1, 7,21, 0, 1, 0.00,60.00,SummerDesignDay
1125,22.44800242804688
1165,23.702429759239505
1205,23.99832517394226
1245,23.90264359079464
1285,23.231487113740689
1325,24.803164554171
1365,24.025152903909264
1405,23.998520864445145
1445,23.997960996416678
1485,23.99804529112267
1525,23.99763397248003
1565,24.469579920014856
1605,24.617896825285528
1645,23.423174681423885
1685,22.782911176064855
1725,23.99932634855118
1765,23.99891709079075
1805,23.886264526644984
1845,23.889296663176567
1885,23.906856298881626
2,1, 7,21, 0, 2, 0.00,10.00,SummerDesignDay
8,13.95555882260429
10,120487646.50123051
891,101995627.29351199
2,1, 7,21, 0, 2,10.00,20.00,SummerDesignDay
8,13.924507755336454
10,119306708.09463924
891,51398490.12132992
2,1, 7,21, 0, 2,20.00,30.00,SummerDesignDay
8,13.893416042989206
10,118953628.26421976
891,100774341.20046515
2,1, 7,21, 0, 2,30.00,40.00,SummerDesignDay
8,13.862289589689029
10,118490340.39064436
891,83705745.35383426
2,1, 7,21, 0, 2,40.00,50.00,SummerDesignDay
8,13.831134407608739
10,118147502.68295558
891,69142967.83576599
2,1, 7,21, 0, 2,50.00,60.00,SummerDesignDay
8,13.799938415548118
10,117833669.59809818
891,101917462.23717469
2,1, 7,21, 0, 2, 0.00,60.00,SummerDesignDay
1125,22.358843709735767
1165,23.4394791853519
1205,24.435599249796839
1245,23.80232642148478
1285,22.953404299810115
1325,24.597368918667156
1365,23.809900963532188
1405,23.998547088436895
1445,24.389951833402035
1485,24.50277910349566
1525,24.13634653140399
1565,24.21449206048398
1605,24.233935507226776
1645,22.544343777983078
1685,22.372097793460538
1725,23.910650598619026
1765,23.99932410710085
1805,23.88612338269439
1845,23.888600194879574
1885,23.9064646546182
2,1, 7,21, 0, 3, 0.00,10.00,SummerDesignDay
8,13.776521671948676
10,92661946.3253684
891,7836108.625914143
2,1, 7,21, 0, 3,10.00,20.00,SummerDesignDay
8,13.753085235778466
10,92048627.33349702
891,38362308.51328909
2,1, 7,21, 0, 3,20.00,30.00,SummerDesignDay
8,13.729636002354969
10,91770085.51437597
891,45082588.277862187
2,1, 7,21, 0, 3,30.00,40.00,SummerDesignDay
8,13.706147375533054
10,91471214.93820714
891,45298387.17119312
2,1, 7,21, 0, 3,40.00,50.00,SummerDesignDay
8,13.682651961920304
10,91172497.96074976
891,20750494.615607
2,1, 7,21, 0, 3,50.00,60.00,SummerDesignDay
8,13.659136670643687
10,90877989.95743004
891,26383605.57876433
2,1, 7,21, 0, 3, 0.00,60.00,SummerDesignDay
1125,22.27312743433839
1165,23.23186264162805
1205,23.98463490937044
1245,23.701989919367436
1285,22.73244843742643
1325,24.419862333400034
1365,23.633494685533348
1405,23.99855722021297
1445,23.874756604216544
1485,24.07681855110275
1525,23.555080092933907
1565,23.98850090347396
1605,23.904700107312438
1645,21.430196342389853
1685,22.028967728109664
1725,23.616171373608258
1765,23.999435069004936
1805,23.886215592308927
1845,23.88809042022329
1885,23.906051404066358
2,1, 7,21, 0, 4, 0.00,10.00,SummerDesignDay
8,13.63560137410855
10,86003983.12495104
891,44594699.721739988
2,1, 7,21, 0, 4,10.00,20.00,SummerDesignDay
8,13.612040802606578
10,85339788.51687008
891,2005292.732880209
2,1, 7,21, 0, 4,20.00,30.00,SummerDesignDay
8,13.58846620506876
10,85032516.60187507
891,44652955.78713095
2,1, 7,21, 0, 4,30.00,40.00,SummerDesignDay
8,13.56487178447336
10,84753263.45391883
891,45037917.9965414
2,1, 7,21, 0, 4,40.00,50.00,SummerDesignDay
8,13.541257354069103
10,84328305.05931235
891,2358704.8572906299
2,1, 7,21, 0, 4,50.00,60.00,SummerDesignDay
8,13.517617463812285
10,84172131.36566209
891,45177086.856068197
2,1, 7,21, 0, 4, 0.00,60.00,SummerDesignDay
1125,22.185374536939589
1165,23.049188855198538
1205,23.587933576899805
1245,23.5957541159914
1285,22.534407574678857
1325,24.256781902053075
1365,23.463177509391739
1405,24.00286539297346
1445,23.461379001248319
1485,23.655949358626186
1525,23.15990731996096
1565,23.767787485200747
1605,23.613985326190379
1645,20.816550209558714
1685,21.72368969655651
1725,23.183699254698298
1765,23.99949215868047
1805,23.886291002320634
1845,23.88717497968868
1885,23.90563054345859
2,1, 7,21, 0, 5, 0.00,10.00,SummerDesignDay
8,13.50185415824011
10,84018432.27272171
891,2558991.3251888866
2,1, 7,21, 0, 5,10.00,20.00,SummerDesignDay
8,13.486076034032447
10,83963844.47578256
891,45264102.98108139
2,1, 7,21, 0, 5,20.00,30.00,SummerDesignDay
8,13.470289340350983
10,83870602.77769819
891,2716065.563302985
2,1, 7,21, 0, 5,30.00,40.00,SummerDesignDay
8,13.454493322631063
10,84104044.38666685
891,45333720.14975731
2,1, 7,21, 0, 5,40.00,50.00,SummerDesignDay
8,13.438688835118548
10,84092579.61062384
891,45679921.70874452
2,1, 7,21, 0, 5,50.00,60.00,SummerDesignDay
8,13.422888173889437
10,84220950.21948682
891,2951673.186331858
2,1, 7,21, 0, 5, 0.00,60.00,SummerDesignDay
1125,22.100094165914056
1165,22.8803192218237
1205,23.469576809809273
1245,23.491011683302536
1285,22.350538588425079
1325,24.109434446326096
1365,23.35140904300427
1405,23.99887455488643
1445,23.228475920901315
1485,23.48988260484813
1525,22.987644225422199
1565,23.558098474613286
1605,23.40215055891261
1645,20.812551609595947
1685,21.4950056362743
1725,22.98902781590604
1765,23.999533359974106
1805,23.886226850660028
1845,23.88669153296227
1885,23.905215975696298
2,1, 7,21, 0, 6, 0.00,10.00,SummerDesignDay
8,13.438688835118548
10,84593475.87073995
891,46476502.10412432
2,1, 7,21, 0, 6,10.00,20.00,SummerDesignDay
8,13.454493322631063
10,85272526.6517833
891,46623112.25266908
2,1, 7,21, 0, 6,20.00,30.00,SummerDesignDay
8,13.470289340350983
10,85650182.61995889
891,2731791.609167715
2,1, 7,21, 0, 6,30.00,40.00,SummerDesignDay
8,13.486076034032447
10,86048686.4010527
891,46296400.873593639
2,1, 7,21, 0, 6,40.00,50.00,SummerDesignDay
8,13.50185415824011
10,86444886.45842852
891,46287282.109019909
2,1, 7,21, 0, 6,50.00,60.00,SummerDesignDay
8,13.517617463812285
10,86803105.25081247
891,46301492.1592009
2,1, 7,21, 0, 6, 0.00,60.00,SummerDesignDay
1125,22.018139553151675
1165,22.77947794284793
1205,23.37990252514267
1245,23.4097361725658
1285,22.249444011782435
1325,24.025205036863658
1365,23.35679092707451
1405,23.998064967532284
1445,23.10338543583721
1485,23.760241006472798
1525,22.959039621054406
1565,23.408835510203489
1605,23.46442285192477
1645,21.841460906853724
1685,21.53933219756374
1725,23.32729895402124
1765,23.99955719426778
1805,23.886088373409366
1845,23.88803968023262
1885,23.904861116150089
2,1, 7,21, 0, 7, 0.00,10.00,SummerDesignDay
8,13.572736920571789
10,95334918.64645525
891,48756895.94409279
2,1, 7,21, 0, 7,10.00,20.00,SummerDesignDay
8,13.627748229152554
10,96892725.9282087
891,48823490.22770563
2,1, 7,21, 0, 7,20.00,30.00,SummerDesignDay
8,13.682651961920304
10,97498658.78743026
891,48605582.60610744
2,1, 7,21, 0, 7,30.00,40.00,SummerDesignDay
8,13.737448093244995
10,98118967.62827939
891,49916942.78522011
2,1, 7,21, 0, 7,40.00,50.00,SummerDesignDay
8,13.792137011831216
10,99244255.15525772
891,93414147.78773733
2,1, 7,21, 0, 7,50.00,60.00,SummerDesignDay
8,13.846719282840333
10,101510285.46369793
891,47682319.482255648
2,1, 7,21, 0, 7, 0.00,60.00,SummerDesignDay
1125,21.940066585463325
1165,22.823350317398025
1205,23.303608880562736
1245,23.344624758963819
1285,22.313199782073857
1325,24.04079377899583
1365,23.34894859716515
1405,23.99779097092401
1445,23.15185552697074
1485,24.244201134637036
1525,22.967194460895187
1565,23.382178742336934
1605,23.832184134770306
1645,23.12344991302434
1685,21.954547974241625
1725,23.809850012739675
1765,23.99935194250004
1805,23.885895848027066
1845,23.889761113234007
1885,23.90456198085937
2,1, 7,21, 0, 8, 0.00,10.00,SummerDesignDay
8,13.978831900527043
10,141005189.0793607
891,106794286.35208042
2,1, 7,21, 0, 8,10.00,20.00,SummerDesignDay
8,14.110321014287419
10,144717894.07487376
891,76908448.60011898
2,1, 7,21, 0, 8,20.00,30.00,SummerDesignDay
8,14.241191509616986
10,147281343.76603038
891,85101339.43026123
2,1, 7,21, 0, 8,30.00,40.00,SummerDesignDay
8,14.371447531304272
10,149440512.38533775
891,107970275.98642853
2,1, 7,21, 0, 8,40.00,50.00,SummerDesignDay
8,14.501093766564925
10,148823920.59107358
891,108000658.63961418
2,1, 7,21, 0, 8,50.00,60.00,SummerDesignDay
8,14.630134792273804
10,150941005.68690218
891,108041096.49053809
2,1, 7,21, 0, 8, 0.00,60.00,SummerDesignDay
1125,22.181496066892039
1165,23.45201881345942
1205,23.232386279735974
1245,23.57330442119211
1285,22.651933739334216
1325,24.00172083529891
1365,23.573584669984159
1405,23.997665425800716
1445,23.480044265617825
1485,24.908541761484533
1525,23.280270822961098
1565,23.557418551628115
1605,23.999876407582407
1645,24.473831673168193
1685,22.93375723779123
1725,23.998907599069829
1765,23.99823623801592
1805,23.885950047267995
1845,23.891143728103896
1885,23.904274557524876
2,1, 7,21, 0, 9, 0.00,10.00,SummerDesignDay
8,14.773641492809972
10,259522904.60411553
891,123099780.88057763
2,1, 7,21, 0, 9,10.00,20.00,SummerDesignDay
8,14.91640948124148
10,265363375.54359395
891,123279440.54352719
2,1, 7,21, 0, 9,20.00,30.00,SummerDesignDay
8,15.05843890714102
10,270207982.9029053
891,123422195.33416368
2,1, 7,21, 0, 9,30.00,40.00,SummerDesignDay
8,15.199735893563798
10,275706677.0776373
891,144375499.85872463
2,1, 7,21, 0, 9,40.00,50.00,SummerDesignDay
8,15.340306256439395
10,283766278.82712545
891,152389372.81245769
2,1, 7,21, 0, 9,50.00,60.00,SummerDesignDay
8,15.48015101768072
10,286979961.13145938
891,134970037.67117999
2,1, 7,21, 0, 9, 0.00,60.00,SummerDesignDay
1125,23.291204910118464
1165,23.99570989826573
1205,23.179319600766644
1245,23.985178049921886
1285,23.6324975950547
1325,23.999894717508984
1365,23.949511943868264
1405,23.998559527937286
1445,23.941155188835283
1485,24.043652110184039
1525,23.83619121483377
1565,23.982624442687365
1605,23.99943656242115
1645,24.022420797882643
1685,23.973608700079649
1725,23.998408740823704
1765,23.998614062800514
1805,23.9246033710894
1845,23.92826422201016
1885,23.936544579915137
2,1, 7,21, 0,10, 0.00,10.00,SummerDesignDay
8,15.60467292907716
10,353228252.9914407
891,140757440.19855569
2,1, 7,21, 0,10,10.00,20.00,SummerDesignDay
8,15.72862731650033
10,359522913.0081596
891,174240283.91127403
2,1, 7,21, 0,10,20.00,30.00,SummerDesignDay
8,15.852017409284228
10,363907309.06717136
891,183526663.04996068
2,1, 7,21, 0,10,30.00,40.00,SummerDesignDay
8,15.974848118364367
10,368267068.9146044
891,143014979.7902959
2,1, 7,21, 0,10,40.00,50.00,SummerDesignDay
8,16.097123145563505
10,372873940.1253171
891,177136156.71786053
2,1, 7,21, 0,10,50.00,60.00,SummerDesignDay
8,16.218846351168599
10,377068780.6786795
891,180620079.47572524
2,1, 7,21, 0,10, 0.00,60.00,SummerDesignDay
1125,23.989086166629549
1165,23.999102513268768
1205,23.76585950276484
1245,23.999520635259175
1285,23.990026350531818
1325,23.99969461715933
1365,24.002683492255146
1405,23.998085060318308
1445,23.999538995474429
1485,23.999304766767055
1525,23.99954952348621
1565,23.999646013715127
1605,23.998733174942829
1645,23.999719307175544
1685,23.999313579059874
1725,23.997198419828469
1765,23.99868232590254
1805,23.886324074483836
1845,23.89399588694781
1885,23.904466864270149
2,1, 7,21, 0,11, 0.00,10.00,SummerDesignDay
8,16.325793027093189
10,403211574.39573499
891,138666467.66091553
2,1, 7,21, 0,11,10.00,20.00,SummerDesignDay
8,16.432322158488288
10,406868661.77054479
891,165589055.15745048
2,1, 7,21, 0,11,20.00,30.00,SummerDesignDay
8,16.538424180249178
10,410706028.9844847
891,180147137.38996766
2,1, 7,21, 0,11,30.00,40.00,SummerDesignDay
8,16.644108396469087
10,414491455.8912207
891,138163181.18718995
2,1, 7,21, 0,11,40.00,50.00,SummerDesignDay
8,16.749376736593655
10,418130635.24548247
891,156413203.19004698
2,1, 7,21, 0,11,50.00,60.00,SummerDesignDay
8,16.854232613237156
10,421668201.4067401
891,189363461.17586989
2,1, 7,21, 0,11, 0.00,60.00,SummerDesignDay
1125,23.999057930360025
1165,23.99909738288149
1205,23.999282873777806
1245,23.999146782718545
1285,24.089569057375625
1325,23.999388969108627
1365,24.067720837757219
1405,23.998366844199983
1445,23.998737105490265
1485,23.998625007214487
1525,23.998805540610097
1565,23.99929160394917
1605,23.99841791538093
1645,23.99902276120996
1685,23.99880881151901
1725,23.997354525957815
1765,23.998835951968759
1805,23.887108382366333
1845,23.896279699938178
1885,23.904825866832373
2,1, 7,21, 0,12, 0.00,10.00,SummerDesignDay
8,16.92390823520069
10,437806194.02359417
891,123015530.40675642
2,1, 7,21, 0,12,10.00,20.00,SummerDesignDay
8,16.99340178950456
10,439357702.4209384
891,121601919.88595198
2,1, 7,21, 0,12,20.00,30.00,SummerDesignDay
8,17.06272006743463
10,442117649.7020307
891,121665232.95643613
2,1, 7,21, 0,12,30.00,40.00,SummerDesignDay
8,17.131853229172639
10,444777435.10561248
891,121725862.81294261
2,1, 7,21, 0,12,40.00,50.00,SummerDesignDay
8,17.200807172194087
10,447397565.22426459
891,135232416.70265267
2,1, 7,21, 0,12,50.00,60.00,SummerDesignDay
8,17.269582116758607
10,449959459.5903748
891,146593964.73407913
2,1, 7,21, 0,12, 0.00,60.00,SummerDesignDay
1125,23.998810456925118
1165,23.998989634440606
1205,23.99874017896553
1245,23.998930509049925
1285,24.16570427933405
1325,23.99916059971746
1365,24.11760554230734
1405,23.998526633401665
1445,23.998103098454707
1485,23.99828024644688
1525,23.998245630192768
1565,23.998995984106786
1605,23.998181563953329
1645,23.998788503258724
1685,23.998630420655588
1725,23.99777423291921
1765,23.99907886075989
1805,23.887373267259929
1845,23.897927103947806
1885,23.905343978879757
2,1, 7,21, 0,13, 0.00,10.00,SummerDesignDay
8,17.32447360221357
10,451792772.112613
891,150897553.25990803
2,1, 7,21, 0,13,10.00,20.00,SummerDesignDay
8,17.379251291230806
10,454252557.7204571
891,128004996.39051125
2,1, 7,21, 0,13,20.00,30.00,SummerDesignDay
8,17.433921312061729
10,456400359.2567269
891,128138325.2660309
2,1, 7,21, 0,13,30.00,40.00,SummerDesignDay
8,17.488473222557489
10,458484232.8444725
891,152526692.36297763
2,1, 7,21, 0,13,40.00,50.00,SummerDesignDay
8,17.542913447755134
10,460524365.72940859
891,166703969.26787485
2,1, 7,21, 0,13,50.00,60.00,SummerDesignDay
8,17.59724609886134
10,462464201.11308887
891,129122322.49967411
2,1, 7,21, 0,13, 0.00,60.00,SummerDesignDay
1125,23.998856659827294
1165,23.999088903130628
1205,23.998297645711465
1245,23.999046643664426
1285,24.220618473612509
1325,23.99871150694878
1365,24.153493078342135
1405,23.998416102764638
1445,23.997408960266787
1485,23.997729876509543
1525,23.997656378271996
1565,23.99843334982813
1605,23.99839769510723
1645,23.99847720983979
1685,23.998558729752959
1725,23.998080319445778
1765,23.999258175146207
1805,23.88738688575128
1845,23.898756142590427
1885,23.90583756242748
2,1, 7,21, 0,14, 0.00,10.00,SummerDesignDay
8,17.6311450462694
10,462465597.46835497
891,138092104.7837117
2,1, 7,21, 0,14,10.00,20.00,SummerDesignDay
8,17.665000449016245
10,464422802.4716979
891,182247435.42962799
2,1, 7,21, 0,14,20.00,30.00,SummerDesignDay
8,17.698812743128934
10,465651315.05740389
891,165997647.81002525
2,1, 7,21, 0,14,30.00,40.00,SummerDesignDay
8,17.732582050940107
10,466955155.38060989
891,139260014.68606944
2,1, 7,21, 0,14,40.00,50.00,SummerDesignDay
8,17.766307345121004
10,468200835.36215236
891,176008709.33055968
2,1, 7,21, 0,14,50.00,60.00,SummerDesignDay
8,17.79999023167558
10,469417630.32121708
891,172257781.5648868
2,1, 7,21, 0,14, 0.00,60.00,SummerDesignDay
1125,23.99889612969115
1165,23.99915403581237
1205,23.998134793183224
1245,23.9991705829402
1285,24.259154933279804
1325,23.99829968820258
1365,24.17890981883399
1405,23.998262971915098
1445,23.996837160558699
1485,23.997244649999165
1525,23.997070273937167
1565,23.997911031156219
1605,23.998525843666884
1645,23.998341907112644
1685,23.99844988649633
1725,23.99825761246117
1765,23.999351215031785
1805,23.88728910398255
1845,23.89902556924166
1885,23.90626823053373
2,1, 7,21, 0,15, 0.00,10.00,SummerDesignDay
8,17.79999023167558
10,467837801.5103071
891,135944188.64048673
2,1, 7,21, 0,15,10.00,20.00,SummerDesignDay
8,17.79999023167558
10,467829193.2630072
891,157307003.62507946
2,1, 7,21, 0,15,20.00,30.00,SummerDesignDay
8,17.79999023167558
10,467925531.5648828
891,181937850.02569629
2,1, 7,21, 0,15,30.00,40.00,SummerDesignDay
8,17.79999023167558
10,467954095.0993199
891,135524568.7049922
2,1, 7,21, 0,15,40.00,50.00,SummerDesignDay
8,17.79999023167558
10,467847096.02981296
891,139463947.30159126
2,1, 7,21, 0,15,50.00,60.00,SummerDesignDay
8,17.79999023167558
10,467601488.56834307
891,184568381.74453245
2,1, 7,21, 0,15, 0.00,60.00,SummerDesignDay
1125,23.998770904846937
1165,23.99893905875058
1205,23.998310208803603
1245,23.999128894276394
1285,24.271753493421924
1325,23.99786526833657
1365,24.187287235711798
1405,23.99823312148256
1445,23.997097523825329
1485,23.99744293253254
1525,23.997227485949023
1565,23.997631168821454
1605,23.998092217350608
1645,23.998622105266788
1685,23.998546370085106
1725,23.99826403230961
1765,23.999335042155705
1805,23.887212824274788
1845,23.89859668668008
1885,23.907420416689165
2,1, 7,21, 0,16, 0.00,10.00,SummerDesignDay
8,17.759562446305357
10,463052956.5523996
891,140352581.73500727
2,1, 7,21, 0,16,10.00,20.00,SummerDesignDay
8,17.71907809634183
10,460585432.0972479
891,125228112.30045946
2,1, 7,21, 0,16,20.00,30.00,SummerDesignDay
8,17.67853788661001
10,458749335.0393291
891,125332571.77655465
2,1, 7,21, 0,16,30.00,40.00,SummerDesignDay
8,17.63791796367351
10,456812078.22571226
891,137475409.77988009
2,1, 7,21, 0,16,40.00,50.00,SummerDesignDay
8,17.59724609886134
10,454780124.8426532
891,158736329.0713664
2,1, 7,21, 0,16,50.00,60.00,SummerDesignDay
8,17.55650676726033
10,452688352.2118592
891,142437937.6524637
2,1, 7,21, 0,16, 0.00,60.00,SummerDesignDay
1125,23.99869627430637
1165,23.998690412341977
1205,23.998690041540688
1245,23.999108734463364
1285,24.25002147847442
1325,23.9973778737973
1365,24.173308078308684
1405,23.99824279753501
1445,23.997926979625566
1485,23.99812181422632
1525,23.997962175866474
1565,23.997428003961248
1605,23.997711647458535
1645,23.9991112034177
1685,23.99851459819278
1725,23.99854305371853
1765,23.999116181566664
1805,23.88728864361359
1845,23.897896393615807
1885,23.908368195204856
2,1, 7,21, 0,17, 0.00,10.00,SummerDesignDay
8,17.50209486331892
10,452083467.0694931
891,117305330.64428562
2,1, 7,21, 0,17,10.00,20.00,SummerDesignDay
8,17.447570789624618
10,448850321.9712326
891,116516993.61068335
2,1, 7,21, 0,17,20.00,30.00,SummerDesignDay
8,17.392929544208135
10,446300540.70435616
891,116530359.88440311
2,1, 7,21, 0,17,30.00,40.00,SummerDesignDay
8,17.33818013976614
10,443696963.7177808
891,116541602.51880183
2,1, 7,21, 0,17,40.00,50.00,SummerDesignDay
8,17.283317298559309
10,441122994.4958369
891,116552679.34963414
2,1, 7,21, 0,17,50.00,60.00,SummerDesignDay
8,17.22833552437677
10,438519242.30991467
891,116563668.38288136
2,1, 7,21, 0,17, 0.00,60.00,SummerDesignDay
1125,23.9987045437752
1165,23.99859632204552
1205,23.998923356304009
1245,23.999119439460089
1285,24.204722087156964
1325,23.99694265403012
1365,24.144123396535407
1405,23.998251313457606
1445,23.998559918758258
1485,23.998662243691297
1525,23.998466300165064
1565,23.99713040378327
1605,23.99777018338285
1645,23.999439693219249
1685,23.99854326624038
1725,23.998875375581077
1765,23.998808854135047
1805,23.88731531971501
1845,23.896802403034046
1885,23.90884932318784
2,1, 7,21, 0,18, 0.00,10.00,SummerDesignDay
8,17.159453019160176
10,426793459.19499537
891,113548662.80484225
2,1, 7,21, 0,18,10.00,20.00,SummerDesignDay
8,17.090391773337136
10,423548046.602774
891,113220235.90587738
2,1, 7,21, 0,18,20.00,30.00,SummerDesignDay
8,17.021151077964786
10,420491004.5384679
891,113218262.19169636
2,1, 7,21, 0,18,30.00,40.00,SummerDesignDay
8,16.951729380464653
10,417481490.78135076
891,113216539.02750822
2,1, 7,21, 0,18,40.00,50.00,SummerDesignDay
8,16.882126503829249
10,414521861.81832686
891,113214815.54406126
2,1, 7,21, 0,18,50.00,60.00,SummerDesignDay
8,16.812341807494034
10,411593128.46976718
891,113213081.21529539
2,1, 7,21, 0,18, 0.00,60.00,SummerDesignDay
1125,23.998898803344784
1165,23.99869557252625
1205,23.99901507843269
1245,23.999262688505199
1285,24.148127774290903
1325,23.99706730386377
1365,24.106971447169259
1405,23.998145175014483
1445,23.998693555483958
1485,23.998776517960427
1525,23.998576438045878
1565,23.997283821450009
1605,23.99828923163301
1645,23.999397619819324
1685,23.998844075027539
1725,23.999065208369733
1765,23.998437081252079
1805,23.88721392031564
1845,23.895516528467778
1885,23.90907352436614
2,1, 7,21, 0,19, 0.00,10.00,SummerDesignDay
8,16.707321072823203
10,367207867.2520167
891,112414090.56489536
2,1, 7,21, 0,19,10.00,20.00,SummerDesignDay
8,16.601881826644556
10,362862851.8730434
891,112325605.90790545
2,1, 7,21, 0,19,20.00,30.00,SummerDesignDay
8,16.496030555252849
10,359104802.62146356
891,112324619.19264055
2,1, 7,21, 0,19,30.00,40.00,SummerDesignDay
8,16.389760181474104
10,355418275.72284528
891,112323497.6435246
2,1, 7,21, 0,19,40.00,50.00,SummerDesignDay
8,16.283067654262039
10,351817097.0199486
891,112322321.28664418
2,1, 7,21, 0,19,50.00,60.00,SummerDesignDay
8,16.17595057957811
10,348276180.7354616
891,111103207.68790804
2,1, 7,21, 0,19, 0.00,60.00,SummerDesignDay
1125,23.841782107061666
1165,23.999326321602763
1205,23.998821637289657
1245,23.999613830512769
1285,24.06950309998337
1325,23.99771487128451
1365,24.05528903496351
1405,23.998089154424247
1445,23.998240546234454
1485,23.99835265232436
1525,23.998026287253784
1565,23.99783975289563
1605,23.999140923654143
1645,23.999194474811067
1685,23.999633548532626
1725,23.999255039364319
1765,23.997368129487954
1805,23.88708493254531
1845,23.89424391982443
1885,23.908759074914007
2,1, 7,21, 0,20, 0.00,10.00,SummerDesignDay
8,16.097123145563505
10,324438079.62140437
891,116879961.17397134
2,1, 7,21, 0,20,10.00,20.00,SummerDesignDay
8,16.018070242471564
10,323251895.3221982
891,116001114.06232926
2,1, 7,21, 0,20,20.00,30.00,SummerDesignDay
8,15.938779752340516
10,320782618.8406084
891,116009115.16224829
2,1, 7,21, 0,20,30.00,40.00,SummerDesignDay
8,15.85926152575189
10,319535673.5024786
891,116016204.01921454
2,1, 7,21, 0,20,40.00,50.00,SummerDesignDay
8,15.779503718563929
10,315629264.3129617
891,116024205.65148378
2,1, 7,21, 0,20,50.00,60.00,SummerDesignDay
8,15.699515709672767
10,313590643.4487373
891,116032285.17258109
2,1, 7,21, 0,20, 0.00,60.00,SummerDesignDay
1125,23.362434333442278
1165,23.999801529344408
1205,23.998713684175219
1245,23.999828632665744
1285,23.989885582028607
1325,23.999030209622917
1365,24.00063334923321
1405,23.9985781069014
1445,23.99788463365373
1485,23.998016508668145
1525,23.99746590521191
1565,23.999058974679227
1605,23.9997688154436
1645,23.99899777056457
1685,25.004526729461188
1725,23.99920176863834
1765,24.002679729368869
1805,23.91206783280265
1845,23.915985582751504
1885,23.928373462945573
2,1, 7,21, 0,21, 0.00,10.00,SummerDesignDay
8,15.63389147320404
10,311579864.229896
891,135977730.45827226
2,1, 7,21, 0,21,10.00,20.00,SummerDesignDay
8,15.56810827419793
10,310654791.70565488
891,174445401.54605378
2,1, 7,21, 0,21,20.00,30.00,SummerDesignDay
8,15.502170882753524
10,308037792.56138798
891,172143948.33823625
2,1, 7,21, 0,21,30.00,40.00,SummerDesignDay
8,15.436068032613852
10,305470069.5720957
891,138552053.49475963
2,1, 7,21, 0,21,40.00,50.00,SummerDesignDay
8,15.369804371206009
10,303041298.3291945
891,166301340.21876494
2,1, 7,21, 0,21,50.00,60.00,SummerDesignDay
8,15.303384603594449
10,300466292.61799278
891,180315481.49622474
2,1, 7,21, 0,21, 0.00,60.00,SummerDesignDay
1125,23.16258320968448
1165,23.99983795957888
1205,23.998013453101735
1245,23.99979639710794
1285,23.932067612914325
1325,23.99921280472455
1365,23.96429869469772
1405,23.998282637425974
1445,23.996748856207856
1485,23.996940172524547
1525,23.996112980400239
1565,23.999099440347704
1605,23.99987009330734
1645,23.99838172675756
1685,24.944996338167429
1725,23.99869441366504
1765,23.99658901177864
1805,23.886773468986765
1845,23.89168260564431
1885,23.908255669999265
2,1, 7,21, 0,22, 0.00,10.00,SummerDesignDay
8,15.236797685071274
10,234129900.1347167
891,131951316.21304094
2,1, 7,21, 0,22,10.00,20.00,SummerDesignDay
8,15.170047891787942
10,233209082.78585664
891,131773795.51258476
2,1, 7,21, 0,22,20.00,30.00,SummerDesignDay
8,15.103134826860483
10,232932767.99601437
891,173090665.4367774