Program Version,EnergyPlus, Version 8.9.0-eba93e8e1b, YMD=2019.04.04 17:58
1,5,Environment Title[],Latitude[deg],Longitude[deg],Time Zone[],Elevation[m]
2,8,Day of Simulation[],Month[],Day of Month[],DST Indicator[1=yes 0=no],Hour[],StartMinute[],EndMinute[],DayType
3,5,Cumulative Day of Simulation[],Month[],Day of Month[],DST Indicator[1=yes 0=no],DayType  ! When Daily Report Variables Requested
4,2,Cumulative Days of Simulation[],Month[]  ! When Monthly Report Variables Requested
5,1,Cumulative Days of Simulation[] ! When Run Period Report Variables Requested
6,1,Calendar Year of Simulation[] ! When Annual Report Variables Requested
7,9,Environment,Site Outdoor Air Drybulb Temperature [C] !Monthly [Value,Min,Day,Hour,Minute,Max,Day,Hour,Minute]
8,1,Environment,Site Outdoor Air Wetbulb Temperature [C] !TimeStep
344,1,FOOD PREPARATION - VENTED-SPACE FUNCTION ZN,Zone Air Temperature [C] !Hourly
345,7,FOOD PREPARATION - VENTED-SPACE FUNCTION ZN,Zone Air Relative Humidity [%] !Daily [Value,Min,Hour,Minute,Max,Hour,Minute]
384,1,FOOD PREPARATION-SPACE FUNCTION ZN,Zone Air Temperature [C] !Hourly
385,7,FOOD PREPARATION-SPACE FUNCTION ZN,Zone Air Relative Humidity [%] !Daily [Value,Min,Hour,Minute,Max,Hour,Minute]
424,1,GYM - AUDIENCE-SPACE FUNCTION ZN,Zone Air Temperature [C] !Hourly
425,7,GYM - AUDIENCE-SPACE FUNCTION ZN,Zone Air Relative Humidity [%] !Daily [Value,Min,Hour,Minute,Max,Hour,Minute]
464,1,GYM - FITNESS-SPACE FUNCTION ZN,Zone Air Temperature [C] !Hourly
465,7,GYM - FITNESS-SPACE FUNCTION ZN,Zone Air Relative Humidity [%] !Daily [Value,Min,Hour,Minute,Max,Hour,Minute]
504,1,GYM - PLAY-SPACE FUNCTION ZN,Zone Air Temperature [C] !Hourly
505,7,GYM - PLAY-SPACE FUNCTION ZN,Zone Air Relative Humidity [%] !Daily [Value,Min,Hour,Minute,Max,Hour,Minute]
10,1,Electricity:Facility [J] !TimeStep
655,1,DistrictCooling:Facility [J] !TimeStep
618,1,DistrictHeating:Facility [J] !TimeStep
End of Data Dictionary
1,FORT MCMURRAY AP ANN CLG .4% CONDNS DB=>MWB,  56.65,-111.22,  -7.00, 369.10
2,1, 7,21, 0, 1, 0.00,10.00,SummerDesignDay
8,14.218136923962174
10,79075591.88563685
618,11940436.259993678
655,29815790.826294304
2,1, 7,21, 0, 1,10.00,20.00,SummerDesignDay
8,14.171982153293495
10,79075591.88563685
618,13491134.053527683
655,28440350.183048417
2,1, 7,21, 0, 1,20.00,30.00,SummerDesignDay
8,14.125744780286427
10,79075591.88563685
618,15060744.43735616
655,27210345.243050368
2,1, 7,21, 0, 1,30.00,40.00,SummerDesignDay
8,14.079436086331978
10,79075591.88563685
618,16567616.389084325
655,25992333.441730799
2,1, 7,21, 0, 1,40.00,50.00,SummerDesignDay
8,14.033050387896898
10,79075591.88563685
618,18032977.024919448
655,24804774.55081965
2,1, 7,21, 0, 1,50.00,60.00,SummerDesignDay
8,13.986581233564835
10,79075591.88563685
618,19484015.557222945
655,23629324.057808687
2,1, 7,21, 0, 1, 0.00,60.00,SummerDesignDay
344,24.000000000000019
384,24.000000000000033
424,22.000007861529594
464,22.000950073409276
504,23.99999999999999
2,1, 7,21, 0, 2, 0.00,10.00,SummerDesignDay
8,13.95555882260429
10,43930884.38090936
618,31626855.698184164
655,0.0
2,1, 7,21, 0, 2,10.00,20.00,SummerDesignDay
8,13.924507755336454
10,43930884.38090936
618,33373945.063594134
655,0.0
2,1, 7,21, 0, 2,20.00,30.00,SummerDesignDay
8,13.893416042989206
10,43930884.38090936
618,34533687.83116619
655,0.0
2,1, 7,21, 0, 2,30.00,40.00,SummerDesignDay
8,13.862289589689029
10,43930884.38090936
618,35733115.54277487
655,0.0
2,1, 7,21, 0, 2,40.00,50.00,SummerDesignDay
8,13.831134407608739
10,43930884.38090936
618,36877491.04083586
655,0.0
2,1, 7,21, 0, 2,50.00,60.00,SummerDesignDay
8,13.799938415548118
10,43930884.38090936
618,37993310.2957661
655,0.0
2,1, 7,21, 0, 2, 0.00,60.00,SummerDesignDay
344,23.622464166001469
384,23.59973868414728
424,22.00000000088295
464,22.000000125773469
504,23.19246897042315
2,1, 7,21, 0, 3, 0.00,10.00,SummerDesignDay
8,13.776521671948676
10,8786176.876181873
618,0.0
655,0.0
2,1, 7,21, 0, 3,10.00,20.00,SummerDesignDay
8,13.753085235778466
10,8786176.876181873
618,0.0
655,0.0
2,1, 7,21, 0, 3,20.00,30.00,SummerDesignDay
8,13.729636002354969
10,8786176.876181873
618,0.0
655,0.0
2,1, 7,21, 0, 3,30.00,40.00,SummerDesignDay
8,13.706147375533054
10,8786176.876181873
618,0.0
655,0.0
2,1, 7,21, 0, 3,40.00,50.00,SummerDesignDay
8,13.682651961920304
10,8786176.876181873
618,0.0
655,0.0
2,1, 7,21, 0, 3,50.00,60.00,SummerDesignDay
8,13.659136670643687
10,8786176.876181873
618,0.0
655,0.0
2,1, 7,21, 0, 3, 0.00,60.00,SummerDesignDay
344,21.90314618473337
384,21.885286539533167
424,19.540228968035519
464,19.52635884882719
504,21.3599696329931
2,1, 7,21, 0, 4, 0.00,10.00,SummerDesignDay
8,13.63560137410855
10,8786176.876181873
618,0.0
655,0.0
2,1, 7,21, 0, 4,10.00,20.00,SummerDesignDay
8,13.612040802606578
10,8786176.876181873
618,0.0
655,0.0
2,1, 7,21, 0, 4,20.00,30.00,SummerDesignDay
8,13.58846620506876
10,8786176.876181873
618,0.0
655,0.0
2,1, 7,21, 0, 4,30.00,40.00,SummerDesignDay
8,13.56487178447336
10,8786176.876181873
618,0.0
655,0.0
2,1, 7,21, 0, 4,40.00,50.00,SummerDesignDay
8,13.541257354069103
10,8786176.876181873
618,0.0
655,0.0
2,1, 7,21, 0, 4,50.00,60.00,SummerDesignDay
8,13.517617463812285
10,8786176.876181873
618,2264796.0909052544
655,0.0
2,1, 7,21, 0, 4, 0.00,60.00,SummerDesignDay
344,20.306705058651955
384,20.26304706316228
424,18.199566939231717
464,18.205429545489499
504,19.899500222894934
2,1, 7,21, 0, 5, 0.00,10.00,SummerDesignDay
8,13.50185415824011
10,8786176.876181873
618,2923906.5895538006
655,0.0
2,1, 7,21, 0, 5,10.00,20.00,SummerDesignDay
8,13.486076034032447
10,8786176.876181873
618,3639659.216711616
655,0.0
2,1, 7,21, 0, 5,20.00,30.00,SummerDesignDay
8,13.470289340350983
10,8786176.876181873
618,4413612.823935967
655,0.0
2,1, 7,21, 0, 5,30.00,40.00,SummerDesignDay
8,13.454493322631063
10,8786176.876181873
618,5090547.852856537
655,0.0
2,1, 7,21, 0, 5,40.00,50.00,SummerDesignDay
8,13.438688835118548
10,8786176.876181873
618,5721967.355831811
655,0.0
2,1, 7,21, 0, 5,50.00,60.00,SummerDesignDay
8,13.422888173889437
10,8786176.876181873
618,6322972.048064893
655,0.0
2,1, 7,21, 0, 5, 0.00,60.00,SummerDesignDay
344,19.60725991737448
384,19.530835531712037
424,18.000426260164063
464,18.000598619641438
504,19.24730004187517
2,1, 7,21, 0, 6, 0.00,10.00,SummerDesignDay
8,13.438688835118548
10,8786176.876181873
618,5975313.889521252
655,0.0
2,1, 7,21, 0, 6,10.00,20.00,SummerDesignDay
8,13.454493322631063
10,8786176.876181873
618,5609136.054110825
655,0.0
2,1, 7,21, 0, 6,20.00,30.00,SummerDesignDay
8,13.470289340350983
10,8786176.876181873
618,5229770.436666469
655,0.0
2,1, 7,21, 0, 6,30.00,40.00,SummerDesignDay
8,13.486076034032447
10,8786176.876181873
618,4836146.207892191
655,0.0
2,1, 7,21, 0, 6,40.00,50.00,SummerDesignDay
8,13.50185415824011
10,8786176.876181873
618,4430167.375959275
655,0.0
2,1, 7,21, 0, 6,50.00,60.00,SummerDesignDay
8,13.517617463812285
10,8786176.876181873
618,4016478.701405436
655,0.0
2,1, 7,21, 0, 6, 0.00,60.00,SummerDesignDay
344,19.306556696614594
384,19.216663053333968
424,18.000000054149497
464,18.000000099107706
504,18.969049534644144
2,1, 7,21, 0, 7, 0.00,10.00,SummerDesignDay
8,13.572736920571789
10,8786176.876181873
618,2431606.8859997515
655,0.0
2,1, 7,21, 0, 7,10.00,20.00,SummerDesignDay
8,13.627748229152554
10,8786176.876181873
618,832853.2539621044
655,0.0
2,1, 7,21, 0, 7,20.00,30.00,SummerDesignDay
8,13.682651961920304
10,8786176.876181873
618,0.0
655,0.0
2,1, 7,21, 0, 7,30.00,40.00,SummerDesignDay
8,13.737448093244995
10,8786176.876181873
618,0.0
655,0.0
2,1, 7,21, 0, 7,40.00,50.00,SummerDesignDay
8,13.792137011831216
10,8786176.876181873
618,0.0
655,0.0
2,1, 7,21, 0, 7,50.00,60.00,SummerDesignDay
8,13.846719282840333
10,8786176.876181873
618,0.0
655,0.0
2,1, 7,21, 0, 7, 0.00,60.00,SummerDesignDay
344,19.375628141562904
384,19.282690642851816
424,18.069354160811398
464,18.084910287616485
504,19.062591775516979
2,1, 7,21, 0, 8, 0.00,10.00,SummerDesignDay
8,13.978831900527043
10,8786176.876181873
618,0.0
655,0.0
2,1, 7,21, 0, 8,10.00,20.00,SummerDesignDay
8,14.110321014287419
10,8786176.876181873
618,0.0
655,0.0
2,1, 7,21, 0, 8,20.00,30.00,SummerDesignDay
8,14.241191509616986
10,8786176.876181873
618,0.0
655,0.0
2,1, 7,21, 0, 8,30.00,40.00,SummerDesignDay
8,14.371447531304272
10,8786176.876181873
618,0.0
655,0.0
2,1, 7,21, 0, 8,40.00,50.00,SummerDesignDay
8,14.501093766564925
10,8786176.876181873
618,0.0
655,0.0
2,1, 7,21, 0, 8,50.00,60.00,SummerDesignDay
8,14.630134792273804
10,8786176.876181873
618,0.0
655,0.0
2,1, 7,21, 0, 8, 0.00,60.00,SummerDesignDay
344,19.931578209946918
384,19.839015626436259
424,18.97132200022242
464,19.025373819933038
504,19.661730583773907
2,1, 7,21, 0, 9, 0.00,10.00,SummerDesignDay
8,14.773641492809972
10,8786176.876181873
618,0.0
655,0.0
2,1, 7,21, 0, 9,10.00,20.00,SummerDesignDay
8,14.91640948124148
10,8786176.876181873
618,0.0
655,0.0
2,1, 7,21, 0, 9,20.00,30.00,SummerDesignDay
8,15.05843890714102
10,8786176.876181873
618,0.0
655,0.0
2,1, 7,21, 0, 9,30.00,40.00,SummerDesignDay
8,15.199735893563798
10,8786176.876181873
618,0.0
655,0.0
2,1, 7,21, 0, 9,40.00,50.00,SummerDesignDay
8,15.340306256439395
10,8786176.876181873
618,0.0
655,0.0
2,1, 7,21, 0, 9,50.00,60.00,SummerDesignDay
8,15.48015101768072
10,8786176.876181873
618,0.0
655,0.0
2,1, 7,21, 0, 9, 0.00,60.00,SummerDesignDay
344,21.03734034346591
384,20.955580306634329
424,20.69261238313167
464,20.771987644735849
504,20.82827433606253
2,1, 7,21, 0,10, 0.00,10.00,SummerDesignDay
8,15.60467292907716
10,43930884.38090936
618,3926575.782561337
655,0.0
2,1, 7,21, 0,10,10.00,20.00,SummerDesignDay
8,15.72862731650033
10,43930884.38090936
618,0.0
655,0.0
2,1, 7,21, 0,10,20.00,30.00,SummerDesignDay
8,15.852017409284228
10,43930884.38090936
618,0.0
655,0.0
2,1, 7,21, 0,10,30.00,40.00,SummerDesignDay
8,15.974848118364367
10,43930884.38090936
618,0.0
655,0.0
2,1, 7,21, 0,10,40.00,50.00,SummerDesignDay
8,16.097123145563505
10,43930884.38090936
618,0.0
655,22134450.665571087
2,1, 7,21, 0,10,50.00,60.00,SummerDesignDay
8,16.218846351168599
10,43930884.38090936
618,0.0
655,36199591.17172856
2,1, 7,21, 0,10, 0.00,60.00,SummerDesignDay
344,23.26420659188874
384,23.21616372368214
424,22.900995227454147
464,23.101067750701529
504,23.134469604178773
2,1, 7,21, 0,11, 0.00,10.00,SummerDesignDay
8,16.325793027093189
10,61503238.133273098
618,0.0
655,70496988.49575043
2,1, 7,21, 0,11,10.00,20.00,SummerDesignDay
8,16.432322158488288
10,61503238.133273098
618,0.0
655,83255557.80584979
2,1, 7,21, 0,11,20.00,30.00,SummerDesignDay
8,16.538424180249178
10,61503238.133273098
618,0.0
655,92398257.78208879
2,1, 7,21, 0,11,30.00,40.00,SummerDesignDay
8,16.644108396469087
10,61503238.133273098
618,0.0
655,101602899.98454376
2,1, 7,21, 0,11,40.00,50.00,SummerDesignDay
8,16.749376736593655
10,61503238.133273098
618,0.0
655,109769423.38328427
2,1, 7,21, 0,11,50.00,60.00,SummerDesignDay
8,16.854232613237156
10,61503238.133273098
618,0.0
655,117680461.58200062
2,1, 7,21, 0,11, 0.00,60.00,SummerDesignDay
344,23.999999670409435
384,23.999999534626228
424,23.996925194984425
464,23.99975432341233
504,23.999994996035669
2,1, 7,21, 0,12, 0.00,10.00,SummerDesignDay
8,16.92390823520069
10,79075591.88563685
618,0.0
655,154333102.79725913
2,1, 7,21, 0,12,10.00,20.00,SummerDesignDay
8,16.99340178950456
10,79075591.88563685
618,0.0
655,162352135.49952428
2,1, 7,21, 0,12,20.00,30.00,SummerDesignDay
8,17.06272006743463
10,79075591.88563685
618,0.0
655,167709020.60886855
2,1, 7,21, 0,12,30.00,40.00,SummerDesignDay
8,17.131853229172639
10,79075591.88563685
618,0.0
655,173239475.3267293
2,1, 7,21, 0,12,40.00,50.00,SummerDesignDay
8,17.200807172194087
10,79075591.88563685
618,0.0
655,178527779.2131946
2,1, 7,21, 0,12,50.00,60.00,SummerDesignDay
8,17.269582116758607
10,79075591.88563685
618,0.0
655,183659349.0000909
2,1, 7,21, 0,12, 0.00,60.00,SummerDesignDay
344,23.99999999999987
384,23.999999999999745
424,23.99999935520151
464,23.99999994871978
504,23.999999999995209
2,1, 7,21, 0,13, 0.00,10.00,SummerDesignDay
8,17.32447360221357
10,79075591.88563685
618,0.0
655,210571963.91590653
2,1, 7,21, 0,13,10.00,20.00,SummerDesignDay
8,17.379251291230806
10,79075591.88563685
618,0.0
655,214789573.24086563
2,1, 7,21, 0,13,20.00,30.00,SummerDesignDay
8,17.433921312061729
10,79075591.88563685
618,0.0
655,218003401.84258003
2,1, 7,21, 0,13,30.00,40.00,SummerDesignDay
8,17.488473222557489
10,79075591.88563685
618,0.0
655,221303525.76424254
2,1, 7,21, 0,13,40.00,50.00,SummerDesignDay
8,17.542913447755134
10,79075591.88563685
618,0.0
655,224510096.2429059
2,1, 7,21, 0,13,50.00,60.00,SummerDesignDay
8,17.59724609886134
10,79075591.88563685
618,0.0
655,227633265.73983003
2,1, 7,21, 0,13, 0.00,60.00,SummerDesignDay
344,24.0
384,24.00000000000001
424,23.99999999989885
464,23.999999999990977
504,24.000000000000015
2,1, 7,21, 0,14, 0.00,10.00,SummerDesignDay
8,17.6311450462694
10,79075591.88563685
618,0.0
655,224136983.7215017
2,1, 7,21, 0,14,10.00,20.00,SummerDesignDay
8,17.665000449016245
10,79075591.88563685
618,0.0
655,225776160.7037345
2,1, 7,21, 0,14,20.00,30.00,SummerDesignDay
8,17.698812743128934
10,79075591.88563685
618,0.0
655,227655224.41185308
2,1, 7,21, 0,14,30.00,40.00,SummerDesignDay
8,17.732582050940107
10,79075591.88563685
618,0.0
655,229499357.88803015
2,1, 7,21, 0,14,40.00,50.00,SummerDesignDay
8,17.766307345121004
10,79075591.88563685
618,0.0
655,231336750.9096951
2,1, 7,21, 0,14,50.00,60.00,SummerDesignDay
8,17.79999023167558
10,79075591.88563685
618,0.0
655,233162232.61951453
2,1, 7,21, 0,14, 0.00,60.00,SummerDesignDay
344,24.000000000000026
384,24.00000000000004
424,24.000000000000005
464,23.99999999999999
504,24.0
2,1, 7,21, 0,15, 0.00,10.00,SummerDesignDay
8,17.79999023167558
10,79075591.88563685
618,0.0
655,218287747.366577
2,1, 7,21, 0,15,10.00,20.00,SummerDesignDay
8,17.79999023167558
10,79075591.88563685
618,0.0
655,217657796.6071573
2,1, 7,21, 0,15,20.00,30.00,SummerDesignDay
8,17.79999023167558
10,79075591.88563685
618,0.0
655,217643241.04574309
2,1, 7,21, 0,15,30.00,40.00,SummerDesignDay
8,17.79999023167558
10,79075591.88563685
618,0.0
655,217553045.01180969
2,1, 7,21, 0,15,40.00,50.00,SummerDesignDay
8,17.79999023167558
10,79075591.88563685
618,0.0
655,217475470.14680702
2,1, 7,21, 0,15,50.00,60.00,SummerDesignDay
8,17.79999023167558
10,79075591.88563685
618,0.0
655,217408421.0804355
2,1, 7,21, 0,15, 0.00,60.00,SummerDesignDay
344,23.99999999999999
384,24.000000000000033
424,24.00000000000001
464,24.00000000000004
504,24.000000000000033
2,1, 7,21, 0,16, 0.00,10.00,SummerDesignDay
8,17.759562446305357
10,79075591.88563685
618,0.0
655,199575174.36386506
2,1, 7,21, 0,16,10.00,20.00,SummerDesignDay
8,17.71907809634183
10,79075591.88563685
618,0.0
655,196371450.2338522
2,1, 7,21, 0,16,20.00,30.00,SummerDesignDay
8,17.67853788661001
10,79075591.88563685
618,0.0
655,193839493.19677557
2,1, 7,21, 0,16,30.00,40.00,SummerDesignDay
8,17.63791796367351
10,79075591.88563685
618,0.0
655,191237525.24411486
2,1, 7,21, 0,16,40.00,50.00,SummerDesignDay
8,17.59724609886134
10,79075591.88563685
618,0.0
655,188407142.81275628
2,1, 7,21, 0,16,50.00,60.00,SummerDesignDay
8,17.55650676726033
10,79075591.88563685
618,0.0
655,185553389.71524353
2,1, 7,21, 0,16, 0.00,60.00,SummerDesignDay
344,24.00000000000001
384,24.00000000000001
424,23.999999999999998
464,24.00000000000003
504,24.000000000000019
2,1, 7,21, 0,17, 0.00,10.00,SummerDesignDay
8,17.50209486331892
10,79075591.88563685
618,0.0
655,181793199.91470776
2,1, 7,21, 0,17,10.00,20.00,SummerDesignDay
8,17.447570789624618
10,79075591.88563685
618,0.0
655,178043156.2995828
2,1, 7,21, 0,17,20.00,30.00,SummerDesignDay
8,17.392929544208135
10,79075591.88563685
618,0.0
655,174305128.38371355
2,1, 7,21, 0,17,30.00,40.00,SummerDesignDay
8,17.33818013976614
10,79075591.88563685
618,0.0
655,170577917.99085514
2,1, 7,21, 0,17,40.00,50.00,SummerDesignDay
8,17.283317298559309
10,79075591.88563685
618,0.0
655,166859429.69865594
2,1, 7,21, 0,17,50.00,60.00,SummerDesignDay
8,17.22833552437677
10,79075591.88563685
618,0.0
655,163147742.1523295
2,1, 7,21, 0,17, 0.00,60.00,SummerDesignDay
344,24.00000000000003
384,24.000000000000019
424,24.00000000000001
464,24.000000000000005
504,24.000000000000015
2,1, 7,21, 0,18, 0.00,10.00,SummerDesignDay
8,17.159453019160176
10,79075591.88563685
618,0.0
655,164559724.90618197
2,1, 7,21, 0,18,10.00,20.00,SummerDesignDay
8,17.090391773337136
10,79075591.88563685
618,0.0
655,160254894.16609294
2,1, 7,21, 0,18,20.00,30.00,SummerDesignDay
8,17.021151077964786
10,79075591.88563685
618,0.0
655,155639776.8292548
2,1, 7,21, 0,18,30.00,40.00,SummerDesignDay
8,16.951729380464653
10,79075591.88563685
618,0.0
655,151060872.2731788
2,1, 7,21, 0,18,40.00,50.00,SummerDesignDay
8,16.882126503829249
10,79075591.88563685
618,0.0
655,146482805.4792094
2,1, 7,21, 0,18,50.00,60.00,SummerDesignDay
8,16.812341807494034
10,79075591.88563685
618,0.0
655,141900224.79629479
2,1, 7,21, 0,18, 0.00,60.00,SummerDesignDay
344,24.000000000000033
384,24.000000000000047
424,24.000000000000005
464,24.000000000000005
504,24.000000000000005
2,1, 7,21, 0,19, 0.00,10.00,SummerDesignDay
8,16.707321072823203
10,79075591.88563685
618,0.0
655,153279388.15637679
2,1, 7,21, 0,19,10.00,20.00,SummerDesignDay
8,16.601881826644556
10,79075591.88563685
618,0.0
655,147258019.57971705
2,1, 7,21, 0,19,20.00,30.00,SummerDesignDay
8,16.496030555252849
10,79075591.88563685
618,0.0
655,140380185.0105043
2,1, 7,21, 0,19,30.00,40.00,SummerDesignDay
8,16.389760181474104
10,79075591.88563685
618,0.0
655,133616797.72293158
2,1, 7,21, 0,19,40.00,50.00,SummerDesignDay
8,16.283067654262039
10,79075591.88563685
618,0.0
655,126799575.71186169
2,1, 7,21, 0,19,50.00,60.00,SummerDesignDay
8,16.17595057957811
10,79075591.88563685
618,0.0
655,119969842.98174367
2,1, 7,21, 0,19, 0.00,60.00,SummerDesignDay
344,24.000000000000026
384,24.000000000000026
424,24.00000000000001
464,24.00000000000001
504,24.000000000000026
2,1, 7,21, 0,20, 0.00,10.00,SummerDesignDay
8,16.097123145563505
10,79075591.88563685
618,0.0
655,133791093.64128915
2,1, 7,21, 0,20,10.00,20.00,SummerDesignDay
8,16.018070242471564
10,79075591.88563685
618,0.0
655,129742015.04999495
2,1, 7,21, 0,20,20.00,30.00,SummerDesignDay
8,15.938779752340516
10,79075591.88563685
618,0.0
655,124782518.97511916
2,1, 7,21, 0,20,30.00,40.00,SummerDesignDay
8,15.85926152575189
10,79075591.88563685
618,0.0
655,119942523.57446231
2,1, 7,21, 0,20,40.00,50.00,SummerDesignDay
8,15.779503718563929
10,79075591.88563685
618,0.0
655,115026717.06492359
2,1, 7,21, 0,20,50.00,60.00,SummerDesignDay
8,15.699515709672767
10,79075591.88563685
618,0.0
655,110086620.6695724
2,1, 7,21, 0,20, 0.00,60.00,SummerDesignDay
344,24.000000000000033
384,24.000000000000044
424,24.000000000000019
464,24.000000000000026
504,23.999999999999955
2,1, 7,21, 0,21, 0.00,10.00,SummerDesignDay
8,15.63389147320404
10,79075591.88563685
618,0.0
655,106047349.19464106
2,1, 7,21, 0,21,10.00,20.00,SummerDesignDay
8,15.56810827419793
10,79075591.88563685
618,0.0
655,101985503.65605402
2,1, 7,21, 0,21,20.00,30.00,SummerDesignDay
8,15.502170882753524
10,79075591.88563685
618,0.0
655,97904551.0730222
2,1, 7,21, 0,21,30.00,40.00,SummerDesignDay
8,15.436068032613852
10,79075591.88563685
618,0.0
655,93808138.91054723
2,1, 7,21, 0,21,40.00,50.00,SummerDesignDay
8,15.369804371206009
10,79075591.88563685
618,0.0
655,89699654.86735134
2,1, 7,21, 0,21,50.00,60.00,SummerDesignDay
8,15.303384603594449
10,79075591.88563685
618,0.0
655,85581863.45223446
2,1, 7,21, 0,21, 0.00,60.00,SummerDesignDay
344,24.00000000000004
384,24.00000000000003
424,24.000000000000015
464,24.000000000000015
504,24.000000000000047
2,1, 7,21, 0,22, 0.00,10.00,SummerDesignDay
8,15.236797685071274
10,79075591.88563685
618,0.0
655,81456674.00250416
2,1, 7,21, 0,22,10.00,20.00,SummerDesignDay
8,15.170047891787942
10,79075591.88563685
618,0.0
655,77320866.28138393
2,1, 7,21, 0,22,20.00,30.00,SummerDesignDay
8,15.103134826860483
10,79075591.88563685
618,0.0
655,73674742.80809118
2,1, 7,21, 0,22,30.00,40.00,SummerDesignDay
8,15.036063385178485
10,79075591.88563685
618,0.0
655,70987551.3668764
2,1, 7,21, 0,22,40.00,50.00,SummerDesignDay
8,14.968821767219835
10,79075591.88563685
618,0.0
655,68295784.45443544
2,1, 7,21, 0,22,50.00,60.00,SummerDesignDay
8,14.90141525878635
10,79075591.88563685
618,0.0
655,65593171.12218979
2,1, 7,21, 0,22, 0.00,60.00,SummerDesignDay
344,24.0
384,24.000000000000019
424,23.911317859540799
464,24.00000000000003
504,24.000000000000015
2,1, 7,21, 0,23, 0.00,10.00,SummerDesignDay
8,14.848873673278373
10,79075591.88563685
618,0.0
655,56574370.9142922
2,1, 7,21, 0,23,10.00,20.00,SummerDesignDay
8,14.796237168136719
10,79075591.88563685
618,0.0
655,55170655.57461403
2,1, 7,21, 0,23,20.00,30.00,SummerDesignDay
8,14.743494321455645
10,79075591.88563685
618,0.0
655,54035882.74784274
2,1, 7,21, 0,23,30.00,40.00,SummerDesignDay
8,14.690649975253665
10,79075591.88563685
618,0.0
655,52598716.34142166
2,1, 7,21, 0,23,40.00,50.00,SummerDesignDay
8,14.637704281233117
10,79075591.88563685
618,0.0
655,51123319.59062808
2,1, 7,21, 0,23,50.00,60.00,SummerDesignDay
8,14.584656914839757
10,79075591.88563685
618,0.0
655,49655590.60055779
2,1, 7,21, 0,23, 0.00,60.00,SummerDesignDay
344,24.000000000000026
384,24.000000000000015
424,22.901814498281227
464,23.368383496265506
504,24.00000000000001
2,1, 7,21, 0,24, 0.00,10.00,SummerDesignDay
8,14.531507212058875
10,79075591.88563685
618,0.0
655,41934081.10436044
2,1, 7,21, 0,24,10.00,20.00,SummerDesignDay
8,14.47825496413355
10,79075591.88563685
618,814358.3436771325
655,40204738.40539974
2,1, 7,21, 0,24,20.00,30.00,SummerDesignDay
8,14.4249000133173
10,79075591.88563685
618,3614972.55987349
655,38694934.00178571
2,1, 7,21, 0,24,30.00,40.00,SummerDesignDay
8,14.371447531304272
10,79075591.88563685
618,3576888.3207714718
655,37164418.85234787
2,1, 7,21, 0,24,40.00,50.00,SummerDesignDay
8,14.31788619902223
10,79075591.88563685
618,4698588.344511479
655,35666235.47547612
2,1, 7,21, 0,24,50.00,60.00,SummerDesignDay
8,14.264220970176066
10,79075591.88563685
618,7093293.1687667
655,34194407.689559478
2,1, 7,21, 0,24, 0.00,60.00,SummerDesignDay
344,24.0
384,23.99999999999999
424,22.060749106519297
464,22.335125428086497
504,24.000000000000015
3,1, 7,21, 0,SummerDesignDay
345,46.73031341159275,40.582931294244577,17,60,60.30669714899347, 6,60
385,46.83310129435827,40.58294893140149,17,60,60.65396972860672, 6,60
425,51.258391317226408,41.323280826215668,16,40,65.31144081435028, 5,50
465,50.78542233741726,40.726096824334458,16,50,65.31141141585191, 5,60
505,50.665985812507297,42.70453663684869,17,60,61.57436886822302, 6,60
4,1, 7
7,22.2505,16.5,21, 5,60,28.9,21,14,60
1,FORT MCMURRAY AP ANN HTG 99.6% CONDNS DB,  56.65,-111.22,  -7.00, 369.10
2,1, 1,21, 0, 1, 0.00,10.00,WinterDesignDay
8,-36.2
10,79075591.88563685
618,928288930.8916475
655,0.0
2,1, 1,21, 0, 1,10.00,20.00,WinterDesignDay
8,-36.2
10,79075591.88563685
618,928600911.1791473
655,0.0
2,1, 1,21, 0, 1,20.00,30.00,WinterDesignDay
8,-36.2
10,79075591.88563685
618,928626088.0170114
655,0.0
2,1, 1,21, 0, 1,30.00,40.00,WinterDesignDay
8,-36.2
10,79075591.88563685
618,928684634.4664861
655,0.0
2,1, 1,21, 0, 1,40.00,50.00,WinterDesignDay
8,-36.2
10,79075591.88563685
618,928740777.0827421
655,0.0
2,1, 1,21, 0, 1,50.00,60.00,WinterDesignDay
8,-36.2
10,79075591.88563685
618,928788121.2259656
655,0.0
2,1, 1,21, 0, 1, 0.00,60.00,WinterDesignDay
344,22.000000000000019
384,22.000000000000026
424,22.000000000000015
464,22.00000000000001
504,22.000000000000005
2,1, 1,21, 0, 2, 0.00,10.00,WinterDesignDay
8,-36.2
10,43930884.38090936
618,964997148.1782694
655,0.0
2,1, 1,21, 0, 2,10.00,20.00,WinterDesignDay
8,-36.2
10,43930884.38090936
618,967515994.0529095
655,0.0
2,1, 1,21, 0, 2,20.00,30.00,WinterDesignDay
8,-36.2
10,43930884.38090936
618,968144317.605915
655,0.0
2,1, 1,21, 0, 2,30.00,40.00,WinterDesignDay
8,-36.2
10,43930884.38090936
618,968839848.8246272
655,0.0
2,1, 1,21, 0, 2,40.00,50.00,WinterDesignDay
8,-36.2
10,43930884.38090936
618,969346180.1531252
655,0.0
2,1, 1,21, 0, 2,50.00,60.00,WinterDesignDay
8,-36.2
10,43930884.38090936
618,969736936.4627369
655,0.0
2,1, 1,21, 0, 2, 0.00,60.00,WinterDesignDay
344,22.000000000000005
384,22.00000000000001
424,22.0
464,22.00000000000001
504,22.00000000000001
2,1, 1,21, 0, 3, 0.00,10.00,WinterDesignDay
8,-36.2
10,8786176.876181873
618,713395849.1785517
655,0.0
2,1, 1,21, 0, 3,10.00,20.00,WinterDesignDay
8,-36.2
10,8786176.876181873
618,844203475.4308319
655,0.0
2,1, 1,21, 0, 3,20.00,30.00,WinterDesignDay
8,-36.2
10,8786176.876181873
618,873632708.1415033
655,0.0
2,1, 1,21, 0, 3,30.00,40.00,WinterDesignDay
8,-36.2
10,8786176.876181873
618,898190130.8629991
655,0.0
2,1, 1,21, 0, 3,40.00,50.00,WinterDesignDay
8,-36.2
10,8786176.876181873
618,908187224.2176495
655,0.0
2,1, 1,21, 0, 3,50.00,60.00,WinterDesignDay
8,-36.2
10,8786176.876181873
618,910710288.256117
655,0.0
2,1, 1,21, 0, 3, 0.00,60.00,WinterDesignDay
344,18.11528603926101
384,18.11538221541448
424,18.03585835802321
464,18.034247413307545
504,18.10408442533591
2,1, 1,21, 0, 4, 0.00,10.00,WinterDesignDay
8,-36.2
10,8786176.876181873
618,912543897.1796306
655,0.0
2,1, 1,21, 0, 4,10.00,20.00,WinterDesignDay
8,-36.2
10,8786176.876181873
618,913914927.1539195
655,0.0
2,1, 1,21, 0, 4,20.00,30.00,WinterDesignDay
8,-36.2
10,8786176.876181873
618,914971223.9625412
655,0.0
2,1, 1,21, 0, 4,30.00,40.00,WinterDesignDay
8,-36.2
10,8786176.876181873
618,915771682.2616253
655,0.0
2,1, 1,21, 0, 4,40.00,50.00,WinterDesignDay
8,-36.2
10,8786176.876181873
618,916383111.3820475
655,0.0
2,1, 1,21, 0, 4,50.00,60.00,WinterDesignDay
8,-36.2
10,8786176.876181873
618,916873340.6540103
655,0.0
2,1, 1,21, 0, 4, 0.00,60.00,WinterDesignDay
344,18.000000000024899
384,18.000000000025996
424,18.000000022585934
464,18.00000003147658
504,18.000000000050265
2,1, 1,21, 0, 5, 0.00,10.00,WinterDesignDay
8,-36.2
10,8786176.876181873
618,917246172.5102869
655,0.0
2,1, 1,21, 0, 5,10.00,20.00,WinterDesignDay
8,-36.2
10,8786176.876181873
618,917548572.0132058
655,0.0
2,1, 1,21, 0, 5,20.00,30.00,WinterDesignDay
8,-36.2
10,8786176.876181873
618,917777831.8245856
655,0.0
2,1, 1,21, 0, 5,30.00,40.00,WinterDesignDay
8,-36.2
10,8786176.876181873
618,917967926.9327303
655,0.0
2,1, 1,21, 0, 5,40.00,50.00,WinterDesignDay
8,-36.2
10,8786176.876181873
618,918110320.3572157
655,0.0
2,1, 1,21, 0, 5,50.00,60.00,WinterDesignDay
8,-36.2
10,8786176.876181873
618,918231117.9562018
655,0.0
2,1, 1,21, 0, 5, 0.00,60.00,WinterDesignDay
344,18.0
384,18.0
424,18.000000000003188
464,18.00000000000571
504,18.0
2,1, 1,21, 0, 6, 0.00,10.00,WinterDesignDay
8,-36.2
10,8786176.876181873
618,918334907.2826156
655,0.0
2,1, 1,21, 0, 6,10.00,20.00,WinterDesignDay
8,-36.2
10,8786176.876181873
618,918406787.3881592
655,0.0
2,1, 1,21, 0, 6,20.00,30.00,WinterDesignDay
8,-36.2
10,8786176.876181873
618,918468935.8642858
655,0.0
2,1, 1,21, 0, 6,30.00,40.00,WinterDesignDay
8,-36.2
10,8786176.876181873
618,918525655.2938515
655,0.0
2,1, 1,21, 0, 6,40.00,50.00,WinterDesignDay
8,-36.2
10,8786176.876181873
618,918574812.2750765
655,0.0
2,1, 1,21, 0, 6,50.00,60.00,WinterDesignDay
8,-36.2
10,8786176.876181873
618,918616682.7915455
655,0.0
2,1, 1,21, 0, 6, 0.00,60.00,WinterDesignDay
344,17.999999999999998
384,18.0
424,18.000000000000005
464,18.000000000000005
504,18.000000000000005
2,1, 1,21, 0, 7, 0.00,10.00,WinterDesignDay
8,-36.2
10,8786176.876181873
618,918652189.6641725
655,0.0
2,1, 1,21, 0, 7,10.00,20.00,WinterDesignDay
8,-36.2
10,8786176.876181873
618,918682327.1316874
655,0.0
2,1, 1,21, 0, 7,20.00,30.00,WinterDesignDay
8,-36.2
10,8786176.876181873
618,918707988.9182149
655,0.0
2,1, 1,21, 0, 7,30.00,40.00,WinterDesignDay
8,-36.2
10,8786176.876181873
618,918723677.3778257
655,0.0
2,1, 1,21, 0, 7,40.00,50.00,WinterDesignDay
8,-36.2
10,8786176.876181873
618,918736714.854421
655,0.0
2,1, 1,21, 0, 7,50.00,60.00,WinterDesignDay
8,-36.2
10,8786176.876181873
618,918749988.0809164
655,0.0
2,1, 1,21, 0, 7, 0.00,60.00,WinterDesignDay
344,18.000000000000008
384,18.000000000000005
424,18.000000000000005
464,18.000000000000005
504,18.000000000000005
2,1, 1,21, 0, 8, 0.00,10.00,WinterDesignDay
8,-36.2
10,8786176.876181873
618,918762673.2115749
655,0.0
2,1, 1,21, 0, 8,10.00,20.00,WinterDesignDay
8,-36.2
10,8786176.876181873
618,918774563.1538485
655,0.0
2,1, 1,21, 0, 8,20.00,30.00,WinterDesignDay
8,-36.2
10,8786176.876181873
618,918785497.6024674
655,0.0
2,1, 1,21, 0, 8,30.00,40.00,WinterDesignDay
8,-36.2
10,8786176.876181873
618,918795504.0528038
655,0.0
2,1, 1,21, 0, 8,40.00,50.00,WinterDesignDay
8,-36.2
10,8786176.876181873
618,918804607.5057801
655,0.0
2,1, 1,21, 0, 8,50.00,60.00,WinterDesignDay
8,-36.2
10,8786176.876181873
618,918812884.6887142
655,0.0
2,1, 1,21, 0, 8, 0.00,60.00,WinterDesignDay
344,18.000000000000008
384,18.000000000000005
424,18.0
464,18.000000000000005
504,18.0
2,1, 1,21, 0, 9, 0.00,10.00,WinterDesignDay
8,-36.2
10,8786176.876181873
618,1077106337.1338909
655,0.0
2,1, 1,21, 0, 9,10.00,20.00,WinterDesignDay
8,-36.2
10,8786176.876181873
618,867990442.0228899
655,0.0
2,1, 1,21, 0, 9,20.00,30.00,WinterDesignDay
8,-36.2
10,8786176.876181873
618,995867425.4759096
655,0.0
2,1, 1,21, 0, 9,30.00,40.00,WinterDesignDay
8,-36.2
10,8786176.876181873
618,966433682.3093004
655,0.0
2,1, 1,21, 0, 9,40.00,50.00,WinterDesignDay
8,-36.2
10,8786176.876181873
618,965543325.531672
655,0.0
2,1, 1,21, 0, 9,50.00,60.00,WinterDesignDay
8,-36.2
10,8786176.876181873
618,965036741.7968134
655,0.0
2,1, 1,21, 0, 9, 0.00,60.00,WinterDesignDay
344,19.999770301156688
384,19.99982719026552
424,19.99708315970504
464,19.99708141630683
504,19.997209397861697
2,1, 1,21, 0,10, 0.00,10.00,WinterDesignDay
8,-36.2
10,43930884.38090936
618,1082042144.0875657
655,0.0
2,1, 1,21, 0,10,10.00,20.00,WinterDesignDay
8,-36.2
10,43930884.38090936
618,883936742.6213403
655,0.0
2,1, 1,21, 0,10,20.00,30.00,WinterDesignDay
8,-36.2
10,43930884.38090936
618,1010295842.4586976
655,0.0
2,1, 1,21, 0,10,30.00,40.00,WinterDesignDay
8,-36.2
10,43930884.38090936
618,979759504.8730991
655,0.0