Program Version,EnergyPlus, Version 8.9.0-eba93e8e1b, YMD=2019.04.04 17:58
1,5,Environment Title[],Latitude[deg],Longitude[deg],Time Zone[],Elevation[m]
2,8,Day of Simulation[],Month[],Day of Month[],DST Indicator[1=yes 0=no],Hour[],StartMinute[],EndMinute[],DayType
3,5,Cumulative Day of Simulation[],Month[],Day of Month[],DST Indicator[1=yes 0=no],DayType  ! When Daily Report Variables Requested
4,2,Cumulative Days of Simulation[],Month[]  ! When Monthly Report Variables Requested
5,1,Cumulative Days of Simulation[] ! When Run Period Report Variables Requested
6,1,Calendar Year of Simulation[] ! When Annual Report Variables Requested
7,9,Environment,Site Outdoor Air Drybulb Temperature [C] !Monthly [Value,Min,Day,Hour,Minute,Max,Day,Hour,Minute]
8,1,Environment,Site Outdoor Air Wetbulb Temperature [C] !TimeStep
555,1,ALL_ST=RELIGIOUS - FELLOWSHIP HALL_FL=STORY 1_SCH=C,Zone Air Temperature [C] !Hourly
556,7,ALL_ST=RELIGIOUS - FELLOWSHIP HALL_FL=STORY 1_SCH=C,Zone Air Relative Humidity [%] !Daily [Value,Min,Hour,Minute,Max,Hour,Minute]
595,1,ALL_ST=RELIGIOUS - PULPIT/CHOIR_FL=STORY 1_SCH=I,Zone Air Temperature [C] !Hourly
596,7,ALL_ST=RELIGIOUS - PULPIT/CHOIR_FL=STORY 1_SCH=I,Zone Air Relative Humidity [%] !Daily [Value,Min,Hour,Minute,Max,Hour,Minute]
635,1,ALL_ST=RETAIL - DRESSING/FITTING_FL=STORY 1_SCH=C,Zone Air Temperature [C] !Hourly
636,7,ALL_ST=RETAIL - DRESSING/FITTING_FL=STORY 1_SCH=C,Zone Air Relative Humidity [%] !Daily [Value,Min,Hour,Minute,Max,Hour,Minute]
675,1,ALL_ST=RETAIL - MALL CONCOURSE_FL=STORY 1_SCH=C,Zone Air Temperature [C] !Hourly
676,7,ALL_ST=RETAIL - MALL CONCOURSE_FL=STORY 1_SCH=C,Zone Air Relative Humidity [%] !Daily [Value,Min,Hour,Minute,Max,Hour,Minute]
715,1,ALL_ST=RETAIL - SALES_FL=STORY 1_SCH=C,Zone Air Temperature [C] !Hourly
716,7,ALL_ST=RETAIL - SALES_FL=STORY 1_SCH=C,Zone Air Relative Humidity [%] !Daily [Value,Min,Hour,Minute,Max,Hour,Minute]
10,1,Electricity:Facility [J] !TimeStep
321,1,Gas:Facility [J] !TimeStep
End of Data Dictionary
1,FORT MCMURRAY AP ANN CLG .4% CONDNS DB=>MWB,  56.65,-111.22,  -7.00, 369.10
2,1, 7,21, 0, 1, 0.00,10.00,SummerDesignDay
8,14.218136923962174
10,18325641.245145404
321,12000.0
2,1, 7,21, 0, 1,10.00,20.00,SummerDesignDay
8,14.171982153293495
10,18325641.245145408
321,12000.0
2,1, 7,21, 0, 1,20.00,30.00,SummerDesignDay
8,14.125744780286427
10,18325641.245145404
321,3862162.129835039
2,1, 7,21, 0, 1,30.00,40.00,SummerDesignDay
8,14.079436086331978
10,18325641.245145404
321,3695031.9017764299
2,1, 7,21, 0, 1,40.00,50.00,SummerDesignDay
8,14.033050387896898
10,18325641.245145404
321,12000.0
2,1, 7,21, 0, 1,50.00,60.00,SummerDesignDay
8,13.986581233564835
10,18325641.245145404
321,12000.0
2,1, 7,21, 0, 1, 0.00,60.00,SummerDesignDay
555,19.829770913021848
595,22.1463701424978
635,20.876834684934499
675,20.2951449353158
715,21.048924556738148
2,1, 7,21, 0, 2, 0.00,10.00,SummerDesignDay
8,13.95555882260429
10,9111967.926705026
321,7344027.381984896
2,1, 7,21, 0, 2,10.00,20.00,SummerDesignDay
8,13.924507755336454
10,9111967.926705026
321,12000.0
2,1, 7,21, 0, 2,20.00,30.00,SummerDesignDay
8,13.893416042989206
10,9111967.926705026
321,12000.0
2,1, 7,21, 0, 2,30.00,40.00,SummerDesignDay
8,13.862289589689029
10,9111967.926705026
321,12000.0
2,1, 7,21, 0, 2,40.00,50.00,SummerDesignDay
8,13.831134407608739
10,9111967.926705026
321,7343184.092606586
2,1, 7,21, 0, 2,50.00,60.00,SummerDesignDay
8,13.799938415548118
10,9111967.926705026
321,12000.0
2,1, 7,21, 0, 2, 0.00,60.00,SummerDesignDay
555,19.188836284451285
595,19.843189862933774
635,20.288393935573393
675,19.72834171819161
715,20.458404791165298
2,1, 7,21, 0, 3, 0.00,10.00,SummerDesignDay
8,13.776521671948676
10,9111967.926705026
321,12000.0
2,1, 7,21, 0, 3,10.00,20.00,SummerDesignDay
8,13.753085235778466
10,9111967.926705026
321,12000.0
2,1, 7,21, 0, 3,20.00,30.00,SummerDesignDay
8,13.729636002354969
10,9111967.926705026
321,3450283.033133567
2,1, 7,21, 0, 3,30.00,40.00,SummerDesignDay
8,13.706147375533054
10,9111967.926705026
321,3860438.063880961
2,1, 7,21, 0, 3,40.00,50.00,SummerDesignDay
8,13.682651961920304
10,9111967.926705026
321,12000.0
2,1, 7,21, 0, 3,50.00,60.00,SummerDesignDay
8,13.659136670643687
10,9111967.926705026
321,12000.0
2,1, 7,21, 0, 3, 0.00,60.00,SummerDesignDay
555,18.708918577003833
595,18.87094558946699
635,19.79072533639297
675,19.303955767604778
715,19.960336484825203
2,1, 7,21, 0, 4, 0.00,10.00,SummerDesignDay
8,13.63560137410855
10,9111967.926705026
321,12000.0
2,1, 7,21, 0, 4,10.00,20.00,SummerDesignDay
8,13.612040802606578
10,9111967.926705026
321,7305986.64990962
2,1, 7,21, 0, 4,20.00,30.00,SummerDesignDay
8,13.58846620506876
10,9111967.926705026
321,12000.0
2,1, 7,21, 0, 4,30.00,40.00,SummerDesignDay
8,13.56487178447336
10,9111967.926705026
321,12000.0
2,1, 7,21, 0, 4,40.00,50.00,SummerDesignDay
8,13.541257354069103
10,9111967.926705026
321,12000.0
2,1, 7,21, 0, 4,50.00,60.00,SummerDesignDay
8,13.517617463812285
10,9111967.926705026
321,7386744.950043822
2,1, 7,21, 0, 4, 0.00,60.00,SummerDesignDay
555,18.35043436701957
595,18.46185230073021
635,19.435660156362208
675,18.982685631504464
715,19.60422005007005
2,1, 7,21, 0, 5, 0.00,10.00,SummerDesignDay
8,13.50185415824011
10,9111967.926705026
321,12000.0
2,1, 7,21, 0, 5,10.00,20.00,SummerDesignDay
8,13.486076034032447
10,9111967.926705026
321,12000.0
2,1, 7,21, 0, 5,20.00,30.00,SummerDesignDay
8,13.470289340350983
10,9111967.926705026
321,12000.0
2,1, 7,21, 0, 5,30.00,40.00,SummerDesignDay
8,13.454493322631063
10,9111967.926705026
321,12000.0
2,1, 7,21, 0, 5,40.00,50.00,SummerDesignDay
8,13.438688835118548
10,9192626.78669754
321,7515606.504829509
2,1, 7,21, 0, 5,50.00,60.00,SummerDesignDay
8,13.422888173889437
10,9111967.926705026
321,1202238.9244959567
2,1, 7,21, 0, 5, 0.00,60.00,SummerDesignDay
555,18.06663633988364
595,18.16114822881283
635,19.16245782929455
675,18.714341420071834
715,19.330136989112856
2,1, 7,21, 0, 6, 0.00,10.00,SummerDesignDay
8,13.438688835118548
10,9111967.926705026
321,769071.3712118743
2,1, 7,21, 0, 6,10.00,20.00,SummerDesignDay
8,13.454493322631063
10,9192626.78669754
321,479849.7246033541
2,1, 7,21, 0, 6,20.00,30.00,SummerDesignDay
8,13.470289340350983
10,9192626.78669754
321,7629067.60918596
2,1, 7,21, 0, 6,30.00,40.00,SummerDesignDay
8,13.486076034032447
10,9192626.78669754
321,30768.58954123658
2,1, 7,21, 0, 6,40.00,50.00,SummerDesignDay
8,13.50185415824011
10,9111967.926705026
321,12000.0
2,1, 7,21, 0, 6,50.00,60.00,SummerDesignDay
8,13.517617463812285
10,9111967.926705026
321,12000.0
2,1, 7,21, 0, 6, 0.00,60.00,SummerDesignDay
555,18.003811312644669
595,18.063184420018325
635,19.019359644309629
675,18.591904777957919
715,19.18574291803697
2,1, 7,21, 0, 7, 0.00,10.00,SummerDesignDay
8,13.572736920571789
10,9111967.926705026
321,2142782.0376918369
2,1, 7,21, 0, 7,10.00,20.00,SummerDesignDay
8,13.627748229152554
10,9111967.926705026
321,5138486.267546784
2,1, 7,21, 0, 7,20.00,30.00,SummerDesignDay
8,13.682651961920304
10,9111967.926705026
321,12000.0
2,1, 7,21, 0, 7,30.00,40.00,SummerDesignDay
8,13.737448093244995
10,9111967.926705026
321,12000.0
2,1, 7,21, 0, 7,40.00,50.00,SummerDesignDay
8,13.792137011831216
10,9111967.926705026
321,12000.0
2,1, 7,21, 0, 7,50.00,60.00,SummerDesignDay
8,13.846719282840333
10,9111967.926705026
321,7314881.785015463
2,1, 7,21, 0, 7, 0.00,60.00,SummerDesignDay
555,18.262840715146909
595,18.361154561859448
635,19.132805737650246
675,18.77905696543017
715,19.296825578654578
2,1, 7,21, 0, 8, 0.00,10.00,SummerDesignDay
8,13.978831900527043
10,9128099.698703528
321,73731591.88369106
2,1, 7,21, 0, 8,10.00,20.00,SummerDesignDay
8,14.110321014287419
10,9111967.926705026
321,13679529.163887695
2,1, 7,21, 0, 8,20.00,30.00,SummerDesignDay
8,14.241191509616986
10,9111967.926705026
321,22182237.655987946
2,1, 7,21, 0, 8,30.00,40.00,SummerDesignDay
8,14.371447531304272
10,9111967.926705026
321,8478327.96328128
2,1, 7,21, 0, 8,40.00,50.00,SummerDesignDay
8,14.501093766564925
10,9111967.926705026
321,701380.4015458103
2,1, 7,21, 0, 8,50.00,60.00,SummerDesignDay
8,14.630134792273804
10,9111967.926705026
321,12000.0
2,1, 7,21, 0, 8, 0.00,60.00,SummerDesignDay
555,20.080214038071209
595,19.27555630453335
635,20.076652314651655
675,20.067373831019066
715,20.153985089146187
2,1, 7,21, 0, 9, 0.00,10.00,SummerDesignDay
8,14.773641492809972
10,36928372.930625397
321,96145366.83916393
2,1, 7,21, 0, 9,10.00,20.00,SummerDesignDay
8,14.91640948124148
10,36901486.64396122
321,31901514.81604443
2,1, 7,21, 0, 9,20.00,30.00,SummerDesignDay
8,15.05843890714102
10,36941816.07395748
321,3558941.515547678
2,1, 7,21, 0, 9,30.00,40.00,SummerDesignDay
8,15.199735893563798
10,36901486.64396122
321,2436347.3096633108
2,1, 7,21, 0, 9,40.00,50.00,SummerDesignDay
8,15.340306256439395
10,36901486.64396122
321,5282873.199228803
2,1, 7,21, 0, 9,50.00,60.00,SummerDesignDay
8,15.48015101768072
10,36901486.64396122
321,12000.0
2,1, 7,21, 0, 9, 0.00,60.00,SummerDesignDay
555,22.17514244470145
595,20.91490669033507
635,22.353319927998077
675,22.37366592953386
715,22.799300280744445
2,1, 7,21, 0,10, 0.00,10.00,SummerDesignDay
8,15.60467292907716
10,65232471.94741596
321,8564972.69469589
2,1, 7,21, 0,10,10.00,20.00,SummerDesignDay
8,15.72862731650033
10,67204798.78996778
321,2795473.1607837507
2,1, 7,21, 0,10,20.00,30.00,SummerDesignDay
8,15.852017409284228
10,71722981.96221587
321,5863888.761036251
2,1, 7,21, 0,10,30.00,40.00,SummerDesignDay
8,15.974848118364367
10,74096393.53979206
321,8639641.06922518
2,1, 7,21, 0,10,40.00,50.00,SummerDesignDay
8,16.097123145563505
10,76002669.98640223
321,12000.0
2,1, 7,21, 0,10,50.00,60.00,SummerDesignDay
8,16.218846351168599
10,77639481.1529416
321,8662083.786051382
2,1, 7,21, 0,10, 0.00,60.00,SummerDesignDay
555,23.771152271861934
595,22.996539743544628
635,23.866578303399284
675,23.89852770722275
715,23.99877704277598
2,1, 7,21, 0,11, 0.00,10.00,SummerDesignDay
8,16.325793027093189
10,81623312.39276709
321,9726647.417501005
2,1, 7,21, 0,11,10.00,20.00,SummerDesignDay
8,16.432322158488288
10,83087667.45605111
321,8445641.996137567
2,1, 7,21, 0,11,20.00,30.00,SummerDesignDay
8,16.538424180249178
10,84282094.28996246
321,3955189.340351887
2,1, 7,21, 0,11,30.00,40.00,SummerDesignDay
8,16.644108396469087
10,85421899.78806931
321,7357305.825405993
2,1, 7,21, 0,11,40.00,50.00,SummerDesignDay
8,16.749376736593655
10,86502444.40114932
321,9842616.154100888
2,1, 7,21, 0,11,50.00,60.00,SummerDesignDay
8,16.854232613237156
10,87533362.35755496
321,9869517.862495408
2,1, 7,21, 0,11, 0.00,60.00,SummerDesignDay
555,23.999294450777624
595,24.72363031721568
635,23.9997725631407
675,23.99974985415236
715,23.99964029053737
2,1, 7,21, 0,12, 0.00,10.00,SummerDesignDay
8,16.92390823520069
10,88228113.74999213
321,11322975.87543185
2,1, 7,21, 0,12,10.00,20.00,SummerDesignDay
8,16.99340178950456
10,88985498.665211
321,11515314.142546608
2,1, 7,21, 0,12,20.00,30.00,SummerDesignDay
8,17.06272006743463
10,89652257.93513222
321,9360908.366981028
2,1, 7,21, 0,12,30.00,40.00,SummerDesignDay
8,17.131853229172639
10,90305654.18955055
321,9219094.836739112
2,1, 7,21, 0,12,40.00,50.00,SummerDesignDay
8,17.200807172194087
10,90946038.39590572
321,9194141.864893327
2,1, 7,21, 0,12,50.00,60.00,SummerDesignDay
8,17.269582116758607
10,91579467.16980082
321,9167993.401796693
2,1, 7,21, 0,12, 0.00,60.00,SummerDesignDay
555,23.999063861793176
595,26.05461773331481
635,23.999803799221977
675,23.99975218559128
715,23.99978888878582
2,1, 7,21, 0,13, 0.00,10.00,SummerDesignDay
8,17.32447360221357
10,93582475.68257445
321,22579188.470364345
2,1, 7,21, 0,13,10.00,20.00,SummerDesignDay
8,17.379251291230806
10,94470516.15864891
321,20567807.43349982
2,1, 7,21, 0,13,20.00,30.00,SummerDesignDay
8,17.433921312061729
10,95009747.54536398
321,17387588.682546095
2,1, 7,21, 0,13,30.00,40.00,SummerDesignDay
8,17.488473222557489
10,95646966.02714022
321,25908166.059580048
2,1, 7,21, 0,13,40.00,50.00,SummerDesignDay
8,17.542913447755134
10,96266747.52398177
321,17406720.758999453
2,1, 7,21, 0,13,50.00,60.00,SummerDesignDay
8,17.59724609886134
10,96902920.89840952
321,20878566.050896914
2,1, 7,21, 0,13, 0.00,60.00,SummerDesignDay
555,23.998355733475838
595,26.997960416967417
635,23.999705080587405
675,23.99961129062997
715,23.999630061049215
2,1, 7,21, 0,14, 0.00,10.00,SummerDesignDay
8,17.6311450462694
10,97325601.66695588
321,22415663.17847579
2,1, 7,21, 0,14,10.00,20.00,SummerDesignDay
8,17.665000449016245
10,97726370.66346845
321,17392179.272168526
2,1, 7,21, 0,14,20.00,30.00,SummerDesignDay
8,17.698812743128934
10,98135681.37075413
321,25908166.059580048
2,1, 7,21, 0,14,30.00,40.00,SummerDesignDay
8,17.732582050940107
10,98506282.69305913
321,17410148.534523246
2,1, 7,21, 0,14,40.00,50.00,SummerDesignDay
8,17.766307345121004
10,98863738.14473325
321,19033918.472715625
2,1, 7,21, 0,14,50.00,60.00,SummerDesignDay
8,17.79999023167558
10,99234731.0479863
321,24252461.50851631
2,1, 7,21, 0,14, 0.00,60.00,SummerDesignDay
555,23.997825034571478
595,27.688808331666789
635,23.999520737022654
675,23.999422564205728
715,24.015822882064314
2,1, 7,21, 0,15, 0.00,10.00,SummerDesignDay
8,17.79999023167558
10,115654554.51771206
321,17354663.342969754
2,1, 7,21, 0,15,10.00,20.00,SummerDesignDay
8,17.79999023167558
10,110109584.06650807
321,25908166.059580044
2,1, 7,21, 0,15,20.00,30.00,SummerDesignDay
8,17.79999023167558
10,107310566.37857306
321,17405905.602405549
2,1, 7,21, 0,15,30.00,40.00,SummerDesignDay
8,17.79999023167558
10,107381448.00841497
321,17421837.28669659
2,1, 7,21, 0,15,40.00,50.00,SummerDesignDay
8,17.79999023167558
10,107162064.54732822
321,25861960.26588725
2,1, 7,21, 0,15,50.00,60.00,SummerDesignDay
8,17.79999023167558
10,106945749.06158045
321,17399549.01425572
2,1, 7,21, 0,15, 0.00,60.00,SummerDesignDay
555,23.99847286759766
595,24.232163518525814
635,23.99961399903493
675,23.999563127069228
715,24.096973109291807
2,1, 7,21, 0,16, 0.00,10.00,SummerDesignDay
8,17.759562446305357
10,117270914.26202184
321,25908166.059580048
2,1, 7,21, 0,16,10.00,20.00,SummerDesignDay
8,17.71907809634183
10,117549657.96136852
321,17688608.119981309
2,1, 7,21, 0,16,20.00,30.00,SummerDesignDay
8,17.67853788661001
10,116844301.17197749
321,24174944.644369253
2,1, 7,21, 0,16,30.00,40.00,SummerDesignDay
8,17.63791796367351
10,116300920.11246538
321,19418312.128147514
2,1, 7,21, 0,16,40.00,50.00,SummerDesignDay
8,17.59724609886134
10,115538716.4600143
321,19986269.99809431
2,1, 7,21, 0,16,50.00,60.00,SummerDesignDay
8,17.55650676726033
10,114963289.8664017
321,23585165.979695314
2,1, 7,21, 0,16, 0.00,60.00,SummerDesignDay
555,23.99781117777381
595,23.99993040180756
635,23.99944569134357
675,23.999379226836266
715,24.035824985263859
2,1, 7,21, 0,17, 0.00,10.00,SummerDesignDay
8,17.50209486331892
10,114860145.83277264
321,15447281.26285965
2,1, 7,21, 0,17,10.00,20.00,SummerDesignDay
8,17.447570789624618
10,113916877.48413846
321,15102613.87662928
2,1, 7,21, 0,17,20.00,30.00,SummerDesignDay
8,17.392929544208135
10,113169801.0895747
321,15091023.314110689
2,1, 7,21, 0,17,30.00,40.00,SummerDesignDay
8,17.33818013976614
10,112539659.00777877
321,17644954.93987758
2,1, 7,21, 0,17,40.00,50.00,SummerDesignDay
8,17.283317298559309
10,111904437.42011549
321,18420972.24749482
2,1, 7,21, 0,17,50.00,60.00,SummerDesignDay
8,17.22833552437677
10,111261113.84664728
321,18460173.558276856
2,1, 7,21, 0,17, 0.00,60.00,SummerDesignDay
555,23.997687517838064
595,23.99992532162808
635,23.999425976735805
675,23.999370277455808
715,23.9990042843784
2,1, 7,21, 0,18, 0.00,10.00,SummerDesignDay
8,17.159453019160176
10,109697180.73814751
321,12493083.764542783
2,1, 7,21, 0,18,10.00,20.00,SummerDesignDay
8,17.090391773337136
10,108660681.54659371
321,10902485.890736454
2,1, 7,21, 0,18,20.00,30.00,SummerDesignDay
8,17.021151077964786
10,107818615.40888703
321,10264029.678918058
2,1, 7,21, 0,18,30.00,40.00,SummerDesignDay
8,16.951729380464653
10,106987940.12062262
321,10251425.674659664
2,1, 7,21, 0,18,40.00,50.00,SummerDesignDay
8,16.882126503829249
10,106153760.64631276
321,10238102.138843567
2,1, 7,21, 0,18,50.00,60.00,SummerDesignDay
8,16.812341807494034
10,105310268.25782417
321,10224412.770608366
2,1, 7,21, 0,18, 0.00,60.00,SummerDesignDay
555,23.997995036564409
595,23.99989023681228
635,23.99938833505142
675,23.999331224358273
715,23.998974693443175
2,1, 7,21, 0,19, 0.00,10.00,SummerDesignDay
8,16.707321072823203
10,112027289.1963573
321,7870314.284687724
2,1, 7,21, 0,19,10.00,20.00,SummerDesignDay
8,16.601881826644556
10,110891544.80288354
321,10601177.482970028
2,1, 7,21, 0,19,20.00,30.00,SummerDesignDay
8,16.496030555252849
10,109574377.83769104
321,10845006.094283279
2,1, 7,21, 0,19,30.00,40.00,SummerDesignDay
8,16.389760181474104
10,108259596.55697513
321,10855725.465998678
2,1, 7,21, 0,19,40.00,50.00,SummerDesignDay
8,16.283067654262039
10,106903783.25313194
321,10866676.337765618
2,1, 7,21, 0,19,50.00,60.00,SummerDesignDay
8,16.17595057957811
10,105512418.08256851
321,10877623.199897165
2,1, 7,21, 0,19, 0.00,60.00,SummerDesignDay
555,23.998712508804784
595,23.99928622980961
635,23.99944726550483
675,23.999459964707538
715,23.998998385430938
2,1, 7,21, 0,20, 0.00,10.00,SummerDesignDay
8,16.097123145563505
10,84266794.11851822
321,9682574.052265192
2,1, 7,21, 0,20,10.00,20.00,SummerDesignDay
8,16.018070242471564
10,82754089.40073566
321,7317613.66860282
2,1, 7,21, 0,20,20.00,30.00,SummerDesignDay
8,15.938779752340516
10,81534858.61333652
321,7247650.313716743
2,1, 7,21, 0,20,30.00,40.00,SummerDesignDay
8,15.85926152575189
10,80275510.83430791
321,7993522.068047774
2,1, 7,21, 0,20,40.00,50.00,SummerDesignDay
8,15.779503718563929
10,79021618.79579243
321,10709592.609350615
2,1, 7,21, 0,20,50.00,60.00,SummerDesignDay
8,15.699515709672767
10,77756666.36292418
321,10719423.734546308
2,1, 7,21, 0,20, 0.00,60.00,SummerDesignDay
555,23.999460019245359
595,23.997820115265698
635,23.999776554939357
675,23.99979815518442
715,23.99960438933863
2,1, 7,21, 0,21, 0.00,10.00,SummerDesignDay
8,15.63389147320404
10,68998129.00172834
321,10731675.36940502
2,1, 7,21, 0,21,10.00,20.00,SummerDesignDay
8,15.56810827419793
10,67730298.66267485
321,10744040.918446556
2,1, 7,21, 0,21,20.00,30.00,SummerDesignDay
8,15.502170882753524
10,66404691.2434694
321,10756388.229621288
2,1, 7,21, 0,21,30.00,40.00,SummerDesignDay
8,15.436068032613852
10,65729216.71254338
321,7726461.428274096
2,1, 7,21, 0,21,40.00,50.00,SummerDesignDay
8,15.369804371206009
10,65049534.24638112
321,7280467.266753965
2,1, 7,21, 0,21,50.00,60.00,SummerDesignDay
8,15.303384603594449
10,64368897.43871627
321,7202508.428528503
2,1, 7,21, 0,21, 0.00,60.00,SummerDesignDay
555,23.963564135107786
595,23.997200066791323
635,23.999904704273509
675,23.999938031323479
715,23.99982927173072
2,1, 7,21, 0,22, 0.00,10.00,SummerDesignDay
8,15.236797685071274
10,33479497.029381485
321,8395392.178919007
2,1, 7,21, 0,22,10.00,20.00,SummerDesignDay
8,15.170047891787942
10,33175104.98813837
321,8721700.141116016
2,1, 7,21, 0,22,20.00,30.00,SummerDesignDay
8,15.103134826860483
10,32850839.68097969
321,12000.0
2,1, 7,21, 0,22,30.00,40.00,SummerDesignDay
8,15.036063385178485
10,32524372.322112454
321,8694705.429973802
2,1, 7,21, 0,22,40.00,50.00,SummerDesignDay
8,14.968821767219835
10,32181329.291782328
321,8751081.045028255
2,1, 7,21, 0,22,50.00,60.00,SummerDesignDay
8,14.90141525878635
10,31842086.74801677
321,12000.0
2,1, 7,21, 0,22, 0.00,60.00,SummerDesignDay
555,22.492517694484957
595,23.997897957333959
635,23.186388051524859
675,22.895115617967535
715,23.319844818351226
2,1, 7,21, 0,23, 0.00,10.00,SummerDesignDay
8,14.848873673278373
10,30456492.223010605
321,8512129.75500084
2,1, 7,21, 0,23,10.00,20.00,SummerDesignDay
8,14.796237168136719
10,30107250.57051881
321,5501479.4991826689
2,1, 7,21, 0,23,20.00,30.00,SummerDesignDay
8,14.743494321455645
10,29815384.360002724
321,3051621.918233914
2,1, 7,21, 0,23,30.00,40.00,SummerDesignDay
8,14.690649975253665
10,29522064.924650704
321,8528082.099311326
2,1, 7,21, 0,23,40.00,50.00,SummerDesignDay
8,14.637704281233117
10,29225157.061743894
321,12000.0
2,1, 7,21, 0,23,50.00,60.00,SummerDesignDay
8,14.584656914839757
10,28927995.358558164
321,8487601.474359127
2,1, 7,21, 0,23, 0.00,60.00,SummerDesignDay
555,21.275471119240878
595,23.997978017662505
635,22.12892726470871
675,21.667235537339143
715,22.309717980649439
2,1, 7,21, 0,24, 0.00,10.00,SummerDesignDay
8,14.531507212058875
10,27303066.531363157
321,3556974.8421808804
2,1, 7,21, 0,24,10.00,20.00,SummerDesignDay
8,14.47825496413355
10,27303066.531363157
321,4617088.709703982
2,1, 7,21, 0,24,20.00,30.00,SummerDesignDay
8,14.4249000133173
10,27303066.531363157
321,5498486.17324365
2,1, 7,21, 0,24,30.00,40.00,SummerDesignDay
8,14.371447531304272
10,27303066.531363157
321,2686362.8939139328
2,1, 7,21, 0,24,40.00,50.00,SummerDesignDay
8,14.31788619902223
10,27303066.531363157
321,7246776.430910442
2,1, 7,21, 0,24,50.00,60.00,SummerDesignDay
8,14.264220970176066
10,27303066.531363157
321,959124.4414436889
2,1, 7,21, 0,24, 0.00,60.00,SummerDesignDay
555,20.486525057352453
595,23.853373732220097
635,21.415764448677366
675,20.885372634415828
715,21.592058367468057
3,1, 7,21, 0,SummerDesignDay
556,54.4201483039082,46.432123838682517,10,60,65.53504395696997, 6,40
596,50.91088491430702,35.87645796371282,14,60,65.23039662237886, 6,20
636,51.343166239620938,44.96577136999754,11,10,61.39224143629317, 6,40
676,51.96503298316923,44.88353818803349,10,60,63.03431862712382, 6,30
716,50.57170268147826,43.51549754339846,11,10,60.758727025764887, 6,40
4,1, 7
7,22.2505,16.5,21, 5,60,28.9,21,14,60
1,FORT MCMURRAY AP ANN HTG 99.6% CONDNS DB,  56.65,-111.22,  -7.00, 369.10
2,1, 1,21, 0, 1, 0.00,10.00,WinterDesignDay
8,-36.2
10,18325641.245145408
321,1013503641.1625992
2,1, 1,21, 0, 1,10.00,20.00,WinterDesignDay
8,-36.2
10,18325641.245145408
321,1013795992.1306924
2,1, 1,21, 0, 1,20.00,30.00,WinterDesignDay
8,-36.2
10,18325641.245145404
321,1021922931.3925659
2,1, 1,21, 0, 1,30.00,40.00,WinterDesignDay
8,-36.2
10,18325641.245145408
321,1018605707.5754352
2,1, 1,21, 0, 1,40.00,50.00,WinterDesignDay
8,-36.2
10,18325641.245145404
321,1024574689.8329903
2,1, 1,21, 0, 1,50.00,60.00,WinterDesignDay
8,-36.2
10,18325641.245145404
321,1036167802.7051649
2,1, 1,21, 0, 1, 0.00,60.00,WinterDesignDay
555,17.999996404500377
595,18.84836057411656
635,17.9999970963681
675,17.999998860157559
715,17.999996888514145
2,1, 1,21, 0, 2, 0.00,10.00,WinterDesignDay
8,-36.2
10,9111967.926705026
321,1037288606.641379
2,1, 1,21, 0, 2,10.00,20.00,WinterDesignDay
8,-36.2
10,9111967.926705026
321,1039464382.1227572
2,1, 1,21, 0, 2,20.00,30.00,WinterDesignDay
8,-36.2
10,9111967.926705026
321,1043086029.7115069
2,1, 1,21, 0, 2,30.00,40.00,WinterDesignDay
8,-36.2
10,9111967.926705026
321,1044662566.9715718
2,1, 1,21, 0, 2,40.00,50.00,WinterDesignDay
8,-36.2
10,9111967.926705026
321,1040768008.0775005
2,1, 1,21, 0, 2,50.00,60.00,WinterDesignDay
8,-36.2
10,9111967.926705026
321,1041038200.6462171
2,1, 1,21, 0, 2, 0.00,60.00,WinterDesignDay
555,17.99999379018431
595,17.999976584951545
635,17.999996196809648
675,17.999998018731568
715,17.999995874763355
2,1, 1,21, 0, 3, 0.00,10.00,WinterDesignDay
8,-36.2
10,9111967.926705026
321,1047877812.1304307
2,1, 1,21, 0, 3,10.00,20.00,WinterDesignDay
8,-36.2
10,9111967.926705026
321,1042225191.954855
2,1, 1,21, 0, 3,20.00,30.00,WinterDesignDay
8,-36.2
10,9111967.926705026
321,1041543381.5023756
2,1, 1,21, 0, 3,30.00,40.00,WinterDesignDay
8,-36.2
10,9111967.926705026
321,1041654040.951205
2,1, 1,21, 0, 3,40.00,50.00,WinterDesignDay
8,-36.2
10,9111967.926705026
321,1049173795.6596812
2,1, 1,21, 0, 3,50.00,60.00,WinterDesignDay
8,-36.2
10,9111967.926705026
321,1041809027.8331844
2,1, 1,21, 0, 3, 0.00,60.00,WinterDesignDay
555,17.99999440176562
595,17.999996345522719
635,17.999997214443469
675,17.999998162779023
715,17.99999694504668
2,1, 1,21, 0, 4, 0.00,10.00,WinterDesignDay
8,-36.2
10,9111967.926705026
321,1041853071.327175
2,1, 1,21, 0, 4,10.00,20.00,WinterDesignDay
8,-36.2
10,9111967.926705026
321,1041899354.6233994
2,1, 1,21, 0, 4,20.00,30.00,WinterDesignDay
8,-36.2
10,9111967.926705026
321,1049355099.831807
2,1, 1,21, 0, 4,30.00,40.00,WinterDesignDay
8,-36.2
10,9111967.926705026
321,1041977127.4664592
2,1, 1,21, 0, 4,40.00,50.00,WinterDesignDay
8,-36.2
10,9111967.926705026
321,1042002031.2094129
2,1, 1,21, 0, 4,50.00,60.00,WinterDesignDay
8,-36.2
10,9111967.926705026
321,1042029868.9401747
2,1, 1,21, 0, 4, 0.00,60.00,WinterDesignDay
555,17.99999456524455
595,17.99999758089301
635,17.999997499413494
675,17.999998197228036
715,17.999997257166347
2,1, 1,21, 0, 5, 0.00,10.00,WinterDesignDay
8,-36.2
10,9111967.926705026
321,1049441005.3978267
2,1, 1,21, 0, 5,10.00,20.00,WinterDesignDay
8,-36.2
10,9111967.926705026
321,1042070769.6773429
2,1, 1,21, 0, 5,20.00,30.00,WinterDesignDay
8,-36.2
10,9111967.926705026
321,1042078332.9988108
2,1, 1,21, 0, 5,30.00,40.00,WinterDesignDay
8,-36.2
10,9111967.926705026
321,1042090223.4664471
2,1, 1,21, 0, 5,40.00,50.00,WinterDesignDay
8,-36.2
10,9111967.926705026
321,1049457401.563035
2,1, 1,21, 0, 5,50.00,60.00,WinterDesignDay
8,-36.2
10,9111967.926705026
321,1042107928.9572655
2,1, 1,21, 0, 5, 0.00,60.00,WinterDesignDay
555,17.99999462236127
595,17.999997676918914
635,17.999997591488364
675,17.999998208079835
715,17.999997360403794
2,1, 1,21, 0, 6, 0.00,10.00,WinterDesignDay
8,-36.2
10,9111967.926705026
321,1042114368.745472
2,1, 1,21, 0, 6,10.00,20.00,WinterDesignDay
8,-36.2
10,9111967.926705026
321,1042124907.8307693
2,1, 1,21, 0, 6,20.00,30.00,WinterDesignDay
8,-36.2
10,9111967.926705026
321,1049446057.1717215
2,1, 1,21, 0, 6,30.00,40.00,WinterDesignDay
8,-36.2
10,9111967.926705026
321,1042135479.7966203
2,1, 1,21, 0, 6,40.00,50.00,WinterDesignDay
8,-36.2
10,9111967.926705026
321,1042141484.6707763
2,1, 1,21, 0, 6,50.00,60.00,WinterDesignDay
8,-36.2
10,9111967.926705026
321,1045714270.838971
2,1, 1,21, 0, 6, 0.00,60.00,WinterDesignDay
555,17.99999464164299
595,17.99999769533128
635,17.999997622190166
675,17.999998212060999
715,17.999997395539287
2,1, 1,21, 0, 7, 0.00,10.00,WinterDesignDay
8,-36.2
10,9111967.926705026
321,1045958367.4249715
2,1, 1,21, 0, 7,10.00,20.00,WinterDesignDay
8,-36.2
10,9111967.926705026
321,1042154175.2406864
2,1, 1,21, 0, 7,20.00,30.00,WinterDesignDay
8,-36.2
10,9111967.926705026
321,1042159971.7852721
2,1, 1,21, 0, 7,30.00,40.00,WinterDesignDay
8,-36.2
10,9111967.926705026
321,1049094356.7354062
2,1, 1,21, 0, 7,40.00,50.00,WinterDesignDay
8,-36.2
10,9111967.926705026
321,1042684552.2271519
2,1, 1,21, 0, 7,50.00,60.00,WinterDesignDay
8,-36.2
10,9111967.926705026
321,1042167689.6199406
2,1, 1,21, 0, 7, 0.00,60.00,WinterDesignDay
555,17.999994653169414
595,17.999997704848938
635,17.99999763409762
675,17.999998214372217
715,17.99999740905071
2,1, 1,21, 0, 8, 0.00,10.00,WinterDesignDay
8,-36.2
10,9146536.00955896
321,1181111880.8739756
2,1, 1,21, 0, 8,10.00,20.00,WinterDesignDay
8,-36.2
10,9111968.450650085
321,1103437065.0008674
2,1, 1,21, 0, 8,20.00,30.00,WinterDesignDay
8,-36.2
10,9111967.926705026
321,1091954785.7080925
2,1, 1,21, 0, 8,30.00,40.00,WinterDesignDay
8,-36.2
10,9111967.926705026
321,1088318229.1583262
2,1, 1,21, 0, 8,40.00,50.00,WinterDesignDay
8,-36.2
10,9111967.926705026
321,1082309474.161329
2,1, 1,21, 0, 8,50.00,60.00,WinterDesignDay
8,-36.2
10,9111967.926705026
321,1089063418.3346077
2,1, 1,21, 0, 8, 0.00,60.00,WinterDesignDay
555,19.97549618126322
595,17.99999811704511
635,19.947000978267558
675,19.95267140382782
715,19.950729720016665
2,1, 1,21, 0, 9, 0.00,10.00,WinterDesignDay
8,-36.2
10,36936054.72681516
321,1189374591.5263756
2,1, 1,21, 0, 9,10.00,20.00,WinterDesignDay
8,-36.2
10,36901487.79674692
321,1110259045.1073225
2,1, 1,21, 0, 9,20.00,30.00,WinterDesignDay
8,-36.2
10,36901486.64396122
321,1108541259.6994694
2,1, 1,21, 0, 9,30.00,40.00,WinterDesignDay
8,-36.2
10,36901486.64396122
321,1097963028.2216883
2,1, 1,21, 0, 9,40.00,50.00,WinterDesignDay
8,-36.2
10,36901487.272751178
321,1099031773.3449982
2,1, 1,21, 0, 9,50.00,60.00,WinterDesignDay
8,-36.2
10,36901487.482345368
321,1089890018.146322
2,1, 1,21, 0, 9, 0.00,60.00,WinterDesignDay
555,21.973623365581124
595,17.99999754516641
635,21.94217537312174
675,21.951353593800588
715,21.96187039474439
2,1, 1,21, 0,10, 0.00,10.00,WinterDesignDay
8,-36.2
10,61603285.09010452
321,1075601590.7520605
2,1, 1,21, 0,10,10.00,20.00,WinterDesignDay
8,-36.2
10,61603286.796013
321,1069308856.3417524
2,1, 1,21, 0,10,20.00,30.00,WinterDesignDay
8,-36.2
10,61683939.919292587
321,1063176863.3456783
2,1, 1,21, 0,10,30.00,40.00,WinterDesignDay
8,-36.2
10,61603290.12027838
321,1068359601.5636677
2,1, 1,21, 0,10,40.00,50.00,WinterDesignDay
8,-36.2
10,61603291.48348847
321,1067418616.9444773
2,1, 1,21, 0,10,50.00,60.00,WinterDesignDay
8,-36.2
10,61603292.36613772
321,1058698439.5484717
2,1, 1,21, 0,10, 0.00,60.00,WinterDesignDay
555,21.999999157390567
595,17.999996022131989
635,21.999994557039086
675,22.00000030103358
715,22.000000017854647
2,1, 1,21, 0,11, 0.00,10.00,WinterDesignDay
8,-36.2
10,61603297.220825869
321,1055090217.3216764
2,1, 1,21, 0,11,10.00,20.00,WinterDesignDay
8,-36.2
10,61603301.34909785
321,1055179188.731984
2,1, 1,21, 0,11,20.00,30.00,WinterDesignDay
8,-36.2
10,61603306.48375179
321,1054714049.261211
2,1, 1,21, 0,11,30.00,40.00,WinterDesignDay
8,-36.2
10,61603311.013314839
321,1054297231.0869621
2,1, 1,21, 0,11,40.00,50.00,WinterDesignDay
8,-36.2
10,61603314.4137075
321,1053975094.5463303
2,1, 1,21, 0,11,50.00,60.00,WinterDesignDay
8,-36.2
10,61683939.919292587
321,1052014879.5851517
2,1, 1,21, 0,11, 0.00,60.00,WinterDesignDay
555,22.00000049749508
595,17.999995579381154
635,22.00000021152711
675,21.999999870991805
715,21.999999817830383
2,1, 1,21, 0,12, 0.00,10.00,WinterDesignDay
8,-36.2
10,61603317.909820187
321,1054107631.0665087
2,1, 1,21, 0,12,10.00,20.00,WinterDesignDay
8,-36.2
10,61603312.555446948
321,1053953251.1773217
2,1, 1,21, 0,12,20.00,30.00,WinterDesignDay
8,-36.2
10,61603313.488746087
321,1053840141.7695421