Program Version,EnergyPlus, Version 8.9.0-eba93e8e1b, YMD=2019.04.04 17:58
1,5,Environment Title[],Latitude[deg],Longitude[deg],Time Zone[],Elevation[m]
2,8,Day of Simulation[],Month[],Day of Month[],DST Indicator[1=yes 0=no],Hour[],StartMinute[],EndMinute[],DayType
3,5,Cumulative Day of Simulation[],Month[],Day of Month[],DST Indicator[1=yes 0=no],DayType  ! When Daily Report Variables Requested
4,2,Cumulative Days of Simulation[],Month[]  ! When Monthly Report Variables Requested
5,1,Cumulative Days of Simulation[] ! When Run Period Report Variables Requested
6,1,Calendar Year of Simulation[] ! When Annual Report Variables Requested
7,9,Environment,Site Outdoor Air Drybulb Temperature [C] !Monthly [Value,Min,Day,Hour,Minute,Max,Day,Hour,Minute]
8,1,Environment,Site Outdoor Air Wetbulb Temperature [C] !TimeStep
555,1,ALL_ST=PENITENTIARY - AUDIENCE_FL=STORY 1_SCH=C,Zone Air Temperature [C] !Hourly
556,7,ALL_ST=PENITENTIARY - AUDIENCE_FL=STORY 1_SCH=C,Zone Air Relative Humidity [%] !Daily [Value,Min,Hour,Minute,Max,Hour,Minute]
595,1,ALL_ST=PENITENTIARY - CLASSROOM_FL=STORY 1_SCH=D,Zone Air Temperature [C] !Hourly
596,7,ALL_ST=PENITENTIARY - CLASSROOM_FL=STORY 1_SCH=D,Zone Air Relative Humidity [%] !Daily [Value,Min,Hour,Minute,Max,Hour,Minute]
635,1,ALL_ST=PENITENTIARY - DINING_FL=STORY 1_SCH=B,Zone Air Temperature [C] !Hourly
636,7,ALL_ST=PENITENTIARY - DINING_FL=STORY 1_SCH=B,Zone Air Relative Humidity [%] !Daily [Value,Min,Hour,Minute,Max,Hour,Minute]
675,1,ALL_ST=POST OFFICE SORTING_FL=STORY 1_SCH=A,Zone Air Temperature [C] !Hourly
676,7,ALL_ST=POST OFFICE SORTING_FL=STORY 1_SCH=A,Zone Air Relative Humidity [%] !Daily [Value,Min,Hour,Minute,Max,Hour,Minute]
715,1,ALL_ST=RELIGIOUS - AUDIENCE_FL=STORY 1_SCH=I,Zone Air Temperature [C] !Hourly
716,7,ALL_ST=RELIGIOUS - AUDIENCE_FL=STORY 1_SCH=I,Zone Air Relative Humidity [%] !Daily [Value,Min,Hour,Minute,Max,Hour,Minute]
10,1,Electricity:Facility [J] !TimeStep
321,1,Gas:Facility [J] !TimeStep
End of Data Dictionary
1,FORT MCMURRAY AP ANN CLG .4% CONDNS DB=>MWB,  56.65,-111.22,  -7.00, 369.10
2,1, 7,21, 0, 1, 0.00,10.00,SummerDesignDay
8,14.218136923962174
10,32430783.54410455
321,10768020.477611535
2,1, 7,21, 0, 1,10.00,20.00,SummerDesignDay
8,14.171982153293495
10,32430783.54410455
321,10779611.300385822
2,1, 7,21, 0, 1,20.00,30.00,SummerDesignDay
8,14.125744780286427
10,32430783.54410455
321,18548305.876900287
2,1, 7,21, 0, 1,30.00,40.00,SummerDesignDay
8,14.079436086331978
10,32452374.77686074
321,17336075.611119346
2,1, 7,21, 0, 1,40.00,50.00,SummerDesignDay
8,14.033050387896898
10,32430811.45469339
321,14557852.232782454
2,1, 7,21, 0, 1,50.00,60.00,SummerDesignDay
8,13.986581233564835
10,32430810.171230198
321,15200862.922365869
2,1, 7,21, 0, 1, 0.00,60.00,SummerDesignDay
555,20.44980856286522
595,20.264667724267345
635,22.122612613081189
675,22.096089219981434
715,22.193384164327374
2,1, 7,21, 0, 2, 0.00,10.00,SummerDesignDay
8,13.95555882260429
10,17592172.209009589
321,32770909.10200969
2,1, 7,21, 0, 2,10.00,20.00,SummerDesignDay
8,13.924507755336454
10,17592169.968166166
321,24617333.179205166
2,1, 7,21, 0, 2,20.00,30.00,SummerDesignDay
8,13.893416042989206
10,17592168.49561531
321,24698618.572226459
2,1, 7,21, 0, 2,30.00,40.00,SummerDesignDay
8,13.862289589689029
10,17592167.407223956
321,25332027.87771929
2,1, 7,21, 0, 2,40.00,50.00,SummerDesignDay
8,13.831134407608739
10,17592166.76689098
321,25938766.983436295
2,1, 7,21, 0, 2,50.00,60.00,SummerDesignDay
8,13.799938415548118
10,17592166.38257834
321,26533615.395080829
2,1, 7,21, 0, 2, 0.00,60.00,SummerDesignDay
555,19.79262221064936
595,19.556813531745047
635,22.000003868354147
675,21.50081639032665
715,19.882858911541179
2,1, 7,21, 0, 3, 0.00,10.00,SummerDesignDay
8,13.776521671948676
10,11967203.85553891
321,12000.0
2,1, 7,21, 0, 3,10.00,20.00,SummerDesignDay
8,13.753085235778466
10,11967203.85553891
321,9833599.162811239
2,1, 7,21, 0, 3,20.00,30.00,SummerDesignDay
8,13.729636002354969
10,11967203.85553891
321,12000.0
2,1, 7,21, 0, 3,30.00,40.00,SummerDesignDay
8,13.706147375533054
10,11967203.85553891
321,12000.0
2,1, 7,21, 0, 3,40.00,50.00,SummerDesignDay
8,13.682651961920304
10,11967203.85553891
321,9843194.417064365
2,1, 7,21, 0, 3,50.00,60.00,SummerDesignDay
8,13.659136670643687
10,11967203.85553891
321,12000.0
2,1, 7,21, 0, 3, 0.00,60.00,SummerDesignDay
555,19.3250777212788
595,19.092967326632466
635,20.034720520308189
675,21.04899565585335
715,18.965464528276696
2,1, 7,21, 0, 4, 0.00,10.00,SummerDesignDay
8,13.63560137410855
10,11967203.85553891
321,12000.0
2,1, 7,21, 0, 4,10.00,20.00,SummerDesignDay
8,13.612040802606578
10,11967203.85553891
321,12000.0
2,1, 7,21, 0, 4,20.00,30.00,SummerDesignDay
8,13.58846620506876
10,11967203.85553891
321,9783520.424318023
2,1, 7,21, 0, 4,30.00,40.00,SummerDesignDay
8,13.56487178447336
10,11967203.85553891
321,12000.0
2,1, 7,21, 0, 4,40.00,50.00,SummerDesignDay
8,13.541257354069103
10,11967203.85553891
321,12000.0
2,1, 7,21, 0, 4,50.00,60.00,SummerDesignDay
8,13.517617463812285
10,11967203.85553891
321,9815033.20092813
2,1, 7,21, 0, 4, 0.00,60.00,SummerDesignDay
555,18.864729586525337
595,18.65523866839055
635,18.59819884882543
675,20.576998745864939
715,18.495490992069607
2,1, 7,21, 0, 5, 0.00,10.00,SummerDesignDay
8,13.50185415824011
10,11967203.85553891
321,12000.0
2,1, 7,21, 0, 5,10.00,20.00,SummerDesignDay
8,13.486076034032447
10,11967203.85553891
321,12000.0
2,1, 7,21, 0, 5,20.00,30.00,SummerDesignDay
8,13.470289340350983
10,11967203.85553891
321,9840808.933188446
2,1, 7,21, 0, 5,30.00,40.00,SummerDesignDay
8,13.454493322631063
10,11967203.85553891
321,12000.0
2,1, 7,21, 0, 5,40.00,50.00,SummerDesignDay
8,13.438688835118548
10,11967203.85553891
321,12000.0
2,1, 7,21, 0, 5,50.00,60.00,SummerDesignDay
8,13.422888173889437
10,11967203.85553891
321,114851.40705372415
2,1, 7,21, 0, 5, 0.00,60.00,SummerDesignDay
555,18.531441752110284
595,18.336214601397928
635,18.194396665675485
675,20.231469603498707
715,18.184734603729379
2,1, 7,21, 0, 6, 0.00,10.00,SummerDesignDay
8,13.438688835118548
10,11967203.85553891
321,9666735.654879027
2,1, 7,21, 0, 6,10.00,20.00,SummerDesignDay
8,13.454493322631063
10,11967203.85553891
321,12000.0
2,1, 7,21, 0, 6,20.00,30.00,SummerDesignDay
8,13.470289340350983
10,11967203.85553891
321,12000.0
2,1, 7,21, 0, 6,30.00,40.00,SummerDesignDay
8,13.486076034032447
10,11967203.85553891
321,9806158.550785624
2,1, 7,21, 0, 6,40.00,50.00,SummerDesignDay
8,13.50185415824011
10,11967203.85553891
321,12000.0
2,1, 7,21, 0, 6,50.00,60.00,SummerDesignDay
8,13.517617463812285
10,11967203.85553891
321,12000.0
2,1, 7,21, 0, 6, 0.00,60.00,SummerDesignDay
555,18.387293304776276
595,18.218239524450739
635,18.079237054453008
675,20.039847985791409
715,18.081658896969296
2,1, 7,21, 0, 7, 0.00,10.00,SummerDesignDay
8,13.572736920571789
10,11967203.85553891
321,9832447.472952869
2,1, 7,21, 0, 7,10.00,20.00,SummerDesignDay
8,13.627748229152554
10,11967203.85553891
321,12000.0
2,1, 7,21, 0, 7,20.00,30.00,SummerDesignDay
8,13.682651961920304
10,11967203.85553891
321,12000.0
2,1, 7,21, 0, 7,30.00,40.00,SummerDesignDay
8,13.737448093244995
10,11967203.85553891
321,9850451.968970623
2,1, 7,21, 0, 7,40.00,50.00,SummerDesignDay
8,13.792137011831216
10,11967203.85553891
321,12000.0
2,1, 7,21, 0, 7,50.00,60.00,SummerDesignDay
8,13.846719282840333
10,11967203.85553891
321,12000.0
2,1, 7,21, 0, 7, 0.00,60.00,SummerDesignDay
555,18.587090581169645
595,18.479496335890368
635,18.38227757077865
675,20.08784101737444
715,18.376416534871998
2,1, 7,21, 0, 8, 0.00,10.00,SummerDesignDay
8,13.978831900527043
10,15688733.377065337
321,69982430.58064987
2,1, 7,21, 0, 8,10.00,20.00,SummerDesignDay
8,14.110321014287419
10,15676415.494949043
321,34031225.78774492
2,1, 7,21, 0, 8,20.00,30.00,SummerDesignDay
8,14.241191509616986
10,15651548.19272369
321,10135966.63401785
2,1, 7,21, 0, 8,30.00,40.00,SummerDesignDay
8,14.371447531304272
10,15651548.19272369
321,2549973.970379855
2,1, 7,21, 0, 8,40.00,50.00,SummerDesignDay
8,14.501093766564925
10,15651548.19272369
321,9809061.036323084
2,1, 7,21, 0, 8,50.00,60.00,SummerDesignDay
8,14.630134792273804
10,15651548.19272369
321,12000.0
2,1, 7,21, 0, 8, 0.00,60.00,SummerDesignDay
555,20.036150261935238
595,20.051348675607846
635,19.332453515055403
675,22.135677126986196
715,19.3016329553039
2,1, 7,21, 0, 9, 0.00,10.00,SummerDesignDay
8,14.773641492809972
10,35807322.478995997
321,67241925.67983316
2,1, 7,21, 0, 9,10.00,20.00,SummerDesignDay
8,14.91640948124148
10,35825086.23461567
321,25291988.42055667
2,1, 7,21, 0, 9,20.00,30.00,SummerDesignDay
8,15.05843890714102
10,38055640.13764779
321,20056159.647293416
2,1, 7,21, 0, 9,30.00,40.00,SummerDesignDay
8,15.199735893563798
10,38903852.96707822
321,10663939.849724953
2,1, 7,21, 0, 9,40.00,50.00,SummerDesignDay
8,15.340306256439395
10,39030316.33186624
321,10667970.827957828
2,1, 7,21, 0, 9,50.00,60.00,SummerDesignDay
8,15.48015101768072
10,39560924.63028442
321,10668798.854906364
2,1, 7,21, 0, 9, 0.00,60.00,SummerDesignDay
555,22.32306485812562
595,22.414517091315987
635,21.012490798595019
675,23.686099930343358
715,20.950869614172836
2,1, 7,21, 0,10, 0.00,10.00,SummerDesignDay
8,15.60467292907716
10,68075502.37729323
321,23768513.64383375
2,1, 7,21, 0,10,10.00,20.00,SummerDesignDay
8,15.72862731650033
10,71747784.64925573
321,32971409.70408041
2,1, 7,21, 0,10,20.00,30.00,SummerDesignDay
8,15.852017409284228
10,74188917.45772088
321,27628053.157269278
2,1, 7,21, 0,10,30.00,40.00,SummerDesignDay
8,15.974848118364367
10,75634884.79082449
321,24236991.844864478
2,1, 7,21, 0,10,40.00,50.00,SummerDesignDay
8,16.097123145563505
10,78251697.20192103
321,24241261.92333395
2,1, 7,21, 0,10,50.00,60.00,SummerDesignDay
8,16.218846351168599
10,81330545.38222932
321,24251357.26356501
2,1, 7,21, 0,10, 0.00,60.00,SummerDesignDay
555,23.771403575206777
595,23.952301146507833
635,23.45662741297589
675,23.999163433939115
715,22.849721004087159
2,1, 7,21, 0,11, 0.00,10.00,SummerDesignDay
8,16.325793027093189
10,88315077.94824276
321,39823863.36703541
2,1, 7,21, 0,11,10.00,20.00,SummerDesignDay
8,16.432322158488288
10,90364847.61024143
321,35157199.99823559
2,1, 7,21, 0,11,20.00,30.00,SummerDesignDay
8,16.538424180249178
10,91731851.80807391
321,31949794.034097159
2,1, 7,21, 0,11,30.00,40.00,SummerDesignDay
8,16.644108396469087
10,93032571.8229424
321,40264727.06334499
2,1, 7,21, 0,11,40.00,50.00,SummerDesignDay
8,16.749376736593655
10,94280784.67557521
321,36172170.29721752
2,1, 7,21, 0,11,50.00,60.00,SummerDesignDay
8,16.854232613237156
10,95465377.78456457
321,30929242.235062846
2,1, 7,21, 0,11, 0.00,60.00,SummerDesignDay
555,23.99913909743133
595,23.99757483335647
635,23.999529247869878
675,23.99855648160342
715,24.694894045150624
2,1, 7,21, 0,12, 0.00,10.00,SummerDesignDay
8,16.92390823520069
10,100336932.23818776
321,38553775.468982558
2,1, 7,21, 0,12,10.00,20.00,SummerDesignDay
8,16.99340178950456
10,101056892.535093
321,25569969.899839935
2,1, 7,21, 0,12,20.00,30.00,SummerDesignDay
8,17.06272006743463
10,101833704.3310813
321,38377750.2080986
2,1, 7,21, 0,12,30.00,40.00,SummerDesignDay
8,17.131853229172639
10,102606143.68335879
321,25564757.859470868
2,1, 7,21, 0,12,40.00,50.00,SummerDesignDay
8,17.200807172194087
10,103355081.94740299
321,35823406.64362296
2,1, 7,21, 0,12,50.00,60.00,SummerDesignDay
8,17.269582116758607
10,104087182.8043768
321,28119313.651016278
2,1, 7,21, 0,12, 0.00,60.00,SummerDesignDay
555,23.998706068232527
595,23.996763070121348
635,23.999252751988739
675,23.998124444937078
715,26.069649046284004
2,1, 7,21, 0,13, 0.00,10.00,SummerDesignDay
8,17.32447360221357
10,105879047.31298325
321,41097200.28429512
2,1, 7,21, 0,13,10.00,20.00,SummerDesignDay
8,17.379251291230806
10,106716475.16944035
321,37659314.79476689
2,1, 7,21, 0,13,20.00,30.00,SummerDesignDay
8,17.433921312061729
10,107372076.30342569
321,31548416.871093077
2,1, 7,21, 0,13,30.00,40.00,SummerDesignDay
8,17.488473222557489
10,108113485.67744388
321,41258573.074825029
2,1, 7,21, 0,13,40.00,50.00,SummerDesignDay
8,17.542913447755134
10,108846824.69513202
321,41426525.94642419
2,1, 7,21, 0,13,50.00,60.00,SummerDesignDay
8,17.59724609886134
10,109575074.45289912
321,41425649.358515437
2,1, 7,21, 0,13, 0.00,60.00,SummerDesignDay
555,23.997842656068447
595,23.996851905210055
635,23.99889097012009
675,23.998282753825664
715,27.013769546699945
2,1, 7,21, 0,14, 0.00,10.00,SummerDesignDay
8,17.6311450462694
10,109836453.91928569
321,36907063.811513
2,1, 7,21, 0,14,10.00,20.00,SummerDesignDay
8,17.665000449016245
10,110352821.16129129
321,35888370.72220129
2,1, 7,21, 0,14,20.00,30.00,SummerDesignDay
8,17.698812743128934
10,110814246.6127224
321,40043252.46860109
2,1, 7,21, 0,14,30.00,40.00,SummerDesignDay
8,17.732582050940107
10,111273192.01080139
321,42352421.94129894
2,1, 7,21, 0,14,40.00,50.00,SummerDesignDay
8,17.766307345121004
10,111729375.02299418
321,42349257.020448829
2,1, 7,21, 0,14,50.00,60.00,SummerDesignDay
8,17.79999023167558
10,112183250.01116692
321,42346255.9974298
2,1, 7,21, 0,14, 0.00,60.00,SummerDesignDay
555,23.99714948095296
595,23.996824065907608
635,23.998638590796504
675,23.998375378902244
715,27.702698590451658
2,1, 7,21, 0,15, 0.00,10.00,SummerDesignDay
8,17.79999023167558
10,128196359.1652554
321,41770420.55700291
2,1, 7,21, 0,15,10.00,20.00,SummerDesignDay
8,17.79999023167558
10,122635465.43776673
321,35898954.73106013
2,1, 7,21, 0,15,20.00,30.00,SummerDesignDay
8,17.79999023167558
10,119812981.04251282
321,35894564.415393229
2,1, 7,21, 0,15,30.00,40.00,SummerDesignDay
8,17.79999023167558
10,119889402.13216053
321,41747231.360252048
2,1, 7,21, 0,15,40.00,50.00,SummerDesignDay
8,17.79999023167558
10,119671283.82346995
321,42351499.36099279
2,1, 7,21, 0,15,50.00,60.00,SummerDesignDay
8,17.79999023167558
10,119460798.77378239
321,42348472.46451295
2,1, 7,21, 0,15, 0.00,60.00,SummerDesignDay
555,23.997921569647905
595,23.997766743808083
635,23.999252778997385
675,24.111423748841607
715,24.234073043366846
2,1, 7,21, 0,16, 0.00,10.00,SummerDesignDay
8,17.759562446305357
10,129131544.37842424
321,40834303.90444139
2,1, 7,21, 0,16,10.00,20.00,SummerDesignDay
8,17.71907809634183
10,129124610.1774913
321,28651937.184099169
2,1, 7,21, 0,16,20.00,30.00,SummerDesignDay
8,17.67853788661001
10,128349769.47224412
321,39635129.337093289
2,1, 7,21, 0,16,30.00,40.00,SummerDesignDay
8,17.63791796367351
10,127706605.8429717
321,40869349.98667948
2,1, 7,21, 0,16,40.00,50.00,SummerDesignDay
8,17.59724609886134
10,127024766.25197922
321,37229014.69204124
2,1, 7,21, 0,16,50.00,60.00,SummerDesignDay
8,17.55650676726033
10,126347661.57502994
321,30880249.862125316
2,1, 7,21, 0,16, 0.00,60.00,SummerDesignDay
555,23.997058182279458
595,23.996837246185689
635,23.999325966603736
675,24.158590262205555
715,23.999929737856957
2,1, 7,21, 0,17, 0.00,10.00,SummerDesignDay
8,17.50209486331892
10,119923307.44125696
321,37583095.63807512
2,1, 7,21, 0,17,10.00,20.00,SummerDesignDay
8,17.447570789624618
10,118693928.94953011
321,24815631.60319668
2,1, 7,21, 0,17,20.00,30.00,SummerDesignDay
8,17.392929544208135
10,117844221.73192324
321,24835058.422019267
2,1, 7,21, 0,17,30.00,40.00,SummerDesignDay
8,17.33818013976614
10,117112200.17327452
321,37152659.74470657
2,1, 7,21, 0,17,40.00,50.00,SummerDesignDay
8,17.283317298559309
10,116390675.93610567
321,24918021.04931163
2,1, 7,21, 0,17,50.00,60.00,SummerDesignDay
8,17.22833552437677
10,115546905.08669439
321,24829994.7089107
2,1, 7,21, 0,17, 0.00,60.00,SummerDesignDay
555,23.99678605080885
595,23.997988928882138
635,23.99962085876878
675,24.055613720262419
715,23.999924379148309
2,1, 7,21, 0,18, 0.00,10.00,SummerDesignDay
8,17.159453019160176
10,106650563.1246546
321,22828523.29764259
2,1, 7,21, 0,18,10.00,20.00,SummerDesignDay
8,17.090391773337136
10,105198746.85308929
321,22631323.549885956
2,1, 7,21, 0,18,20.00,30.00,SummerDesignDay
8,17.021151077964786
10,104175367.00480196
321,13251609.862312325
2,1, 7,21, 0,18,30.00,40.00,SummerDesignDay
8,16.951729380464653
10,103158461.00297529
321,20690746.782925857
2,1, 7,21, 0,18,40.00,50.00,SummerDesignDay
8,16.882126503829249
10,102159193.89015325
321,22625182.76488088
2,1, 7,21, 0,18,50.00,60.00,SummerDesignDay
8,16.812341807494034
10,101147766.01279797
321,22299675.82992218
2,1, 7,21, 0,18, 0.00,60.00,SummerDesignDay
555,23.997148355500725
595,23.999176587490905
635,23.99955815797509
675,23.997971328130718
715,23.9998908147877
2,1, 7,21, 0,19, 0.00,10.00,SummerDesignDay
8,16.707321072823203
10,99821658.91977987
321,16114443.20197531
2,1, 7,21, 0,19,10.00,20.00,SummerDesignDay
8,16.601881826644556
10,98514921.75413807
321,19081374.116376759
2,1, 7,21, 0,19,20.00,30.00,SummerDesignDay
8,16.496030555252849
10,96937887.99965553
321,23262915.992901878
2,1, 7,21, 0,19,30.00,40.00,SummerDesignDay
8,16.389760181474104
10,95361478.70248667
321,23262102.260839818
2,1, 7,21, 0,19,40.00,50.00,SummerDesignDay
8,16.283067654262039
10,93742544.24111381
321,23261797.32581041
2,1, 7,21, 0,19,50.00,60.00,SummerDesignDay
8,16.17595057957811
10,92090361.03766679
321,23261491.178867226
2,1, 7,21, 0,19, 0.00,60.00,SummerDesignDay
555,23.998094777186638
595,23.999574638469239
635,23.999275119090375
675,23.99916003843639
715,23.99929285510025
2,1, 7,21, 0,20, 0.00,10.00,SummerDesignDay
8,16.097123145563505
10,91679280.34826645
321,23733570.439939526
2,1, 7,21, 0,20,10.00,20.00,SummerDesignDay
8,16.018070242471564
10,90648095.42805153
321,23789027.149924399
2,1, 7,21, 0,20,20.00,30.00,SummerDesignDay
8,15.938779752340516
10,89365083.8803229
321,23790974.31172962
2,1, 7,21, 0,20,30.00,40.00,SummerDesignDay
8,15.85926152575189
10,88100802.13398117
321,23792900.59746729
2,1, 7,21, 0,20,40.00,50.00,SummerDesignDay
8,15.779503718563929
10,86804442.51277773
321,23794815.213733339
2,1, 7,21, 0,20,50.00,60.00,SummerDesignDay
8,15.699515709672767
10,85486055.60233443
321,23796718.267983006
2,1, 7,21, 0,20, 0.00,60.00,SummerDesignDay
555,23.99918990964699
595,23.999190662264686
635,23.99880756995834
675,23.999740038955726
715,23.9978300993823
2,1, 7,21, 0,21, 0.00,10.00,SummerDesignDay
8,15.63389147320404
10,83060832.72682767
321,37589936.16447229
2,1, 7,21, 0,21,10.00,20.00,SummerDesignDay
8,15.56810827419793
10,82149795.87817888
321,25191498.78674109
2,1, 7,21, 0,21,20.00,30.00,SummerDesignDay
8,15.502170882753524
10,81015648.94547776
321,29939169.672929154
2,1, 7,21, 0,21,30.00,40.00,SummerDesignDay
8,15.436068032613852
10,79854806.70668622
321,33074767.168726267
2,1, 7,21, 0,21,40.00,50.00,SummerDesignDay
8,15.369804371206009
10,78686619.79262714
321,25202246.31405068
2,1, 7,21, 0,21,50.00,60.00,SummerDesignDay
8,15.303384603594449
10,77491745.02285105
321,37818577.62752385
2,1, 7,21, 0,21, 0.00,60.00,SummerDesignDay
555,23.999484302764484
595,23.999102847112967
635,23.998457038181454
675,23.999850628888266
715,23.997200715376065
2,1, 7,21, 0,22, 0.00,10.00,SummerDesignDay
8,15.236797685071274
10,67293234.22780864
321,24133905.243220584
2,1, 7,21, 0,22,10.00,20.00,SummerDesignDay
8,15.170047891787942
10,66259068.73803638
321,24027672.417190538
2,1, 7,21, 0,22,20.00,30.00,SummerDesignDay
8,15.103134826860483
10,65330752.13968566
321,24033683.893071098
2,1, 7,21, 0,22,30.00,40.00,SummerDesignDay
8,15.036063385178485
10,64378462.78471524
321,24039318.799662524
2,1, 7,21, 0,22,40.00,50.00,SummerDesignDay
8,14.968821767219835
10,63421467.75020453
321,24044330.768846364
2,1, 7,21, 0,22,50.00,60.00,SummerDesignDay
8,14.90141525878635
10,62412112.80887757
321,24049770.240033326
2,1, 7,21, 0,22, 0.00,60.00,SummerDesignDay
555,22.98244677147547
595,23.9994218224605
635,23.998704869223585
675,23.84167513811757
715,23.99787207621456
2,1, 7,21, 0,23, 0.00,10.00,SummerDesignDay
8,14.848873673278373
10,50763348.335158947
321,23396281.51337485
2,1, 7,21, 0,23,10.00,20.00,SummerDesignDay
8,14.796237168136719
10,50421150.65691167
321,23322441.012585503
2,1, 7,21, 0,23,20.00,30.00,SummerDesignDay
8,14.743494321455645
10,50140830.30842136
321,23321521.857558136
2,1, 7,21, 0,23,30.00,40.00,SummerDesignDay
8,14.690649975253665
10,49850245.283255588
321,23321011.119885584
2,1, 7,21, 0,23,40.00,50.00,SummerDesignDay
8,14.637704281233117
10,49563315.86881362
321,23320942.97069297
2,1, 7,21, 0,23,50.00,60.00,SummerDesignDay
8,14.584656914839757
10,49261077.78122952
321,23320352.21726537
2,1, 7,21, 0,23, 0.00,60.00,SummerDesignDay
555,21.851700659331326
595,23.00352706275099
635,23.67669722470176
675,23.356154269297723
715,23.9984282504301
2,1, 7,21, 0,24, 0.00,10.00,SummerDesignDay
8,14.531507212058875
10,41733293.46748117
321,23129263.16844911
2,1, 7,21, 0,24,10.00,20.00,SummerDesignDay
8,14.47825496413355
10,41408208.8303223
321,23109066.355805249
2,1, 7,21, 0,24,20.00,30.00,SummerDesignDay
8,14.4249000133173
10,41408208.8303223
321,22297821.593573918
2,1, 7,21, 0,24,30.00,40.00,SummerDesignDay
8,14.371447531304272
10,41408208.8303223
321,14075978.854835542
2,1, 7,21, 0,24,40.00,50.00,SummerDesignDay
8,14.31788619902223
10,41408208.8303223
321,21398820.806231396
2,1, 7,21, 0,24,50.00,60.00,SummerDesignDay
8,14.264220970176066
10,41408208.8303223
321,23107071.001968415
2,1, 7,21, 0,24, 0.00,60.00,SummerDesignDay
555,21.102038379588277
595,21.264755729410316
635,22.83354801973071
675,22.684319927301968
715,23.881350880666429
3,1, 7,21, 0,SummerDesignDay
556,54.62784147424131,46.85120216808935,10,49,64.01587983774408, 6,30
596,53.76368944909126,46.470147533881668,19,60,64.75114102791925, 6,20
636,53.00880577983205,46.60716418936951,18,60,65.36612057797054, 6,20
676,51.28715775041656,46.13893649545995,21,60,57.978979270044408, 6,60
716,50.868362166139,35.84842665076856,14,60,65.15054314529594, 6,20
4,1, 7
7,22.2505,16.5,21, 5,60,28.9,21,14,60
1,FORT MCMURRAY AP ANN HTG 99.6% CONDNS DB,  56.65,-111.22,  -7.00, 369.10
2,1, 1,21, 0, 1, 0.00,10.00,WinterDesignDay
8,-36.2
10,32430802.949433429
321,1150106688.2473384
2,1, 1,21, 0, 1,10.00,20.00,WinterDesignDay
8,-36.2
10,32430800.662271777
321,1162574478.717198
2,1, 1,21, 0, 1,20.00,30.00,WinterDesignDay
8,-36.2
10,32430799.677824469
321,1152205151.9685505
2,1, 1,21, 0, 1,30.00,40.00,WinterDesignDay
8,-36.2
10,32430798.953094659
321,1167278796.2887989
2,1, 1,21, 0, 1,40.00,50.00,WinterDesignDay
8,-36.2
10,32430797.994604898
321,1162467229.402424
2,1, 1,21, 0, 1,50.00,60.00,WinterDesignDay
8,-36.2
10,32430797.603939915
321,1177942802.6815625
2,1, 1,21, 0, 1, 0.00,60.00,WinterDesignDay
555,17.9999931957069
595,17.99999111187532
635,22.000000278631615
675,18.000000491374004
715,18.859544254977924
2,1, 1,21, 0, 2, 0.00,10.00,WinterDesignDay
8,-36.2
10,17592163.573214786
321,1181924084.4075509
2,1, 1,21, 0, 2,10.00,20.00,WinterDesignDay
8,-36.2
10,17592162.52735946
321,1184857442.971861
2,1, 1,21, 0, 2,20.00,30.00,WinterDesignDay
8,-36.2
10,17592161.94393217
321,1185597566.326456
2,1, 1,21, 0, 2,30.00,40.00,WinterDesignDay
8,-36.2
10,17592161.35187734
321,1196961003.882315
2,1, 1,21, 0, 2,40.00,50.00,WinterDesignDay
8,-36.2
10,17592160.539407478
321,1186725832.2651778
2,1, 1,21, 0, 2,50.00,60.00,WinterDesignDay
8,-36.2
10,17592160.40972195
321,1187106839.4176498
2,1, 1,21, 0, 2, 0.00,60.00,WinterDesignDay
555,17.999990461957517
595,17.99998733656666
635,22.000000619277157
675,17.99999017397666
715,17.999976402921825
2,1, 1,21, 0, 3, 0.00,10.00,WinterDesignDay
8,-36.2
10,11967203.85553891
321,1138976824.8767462
2,1, 1,21, 0, 3,10.00,20.00,WinterDesignDay
8,-36.2
10,11967208.187115619
321,1146508631.822266
2,1, 1,21, 0, 3,20.00,30.00,WinterDesignDay
8,-36.2
10,11967203.85553891
321,1169899971.63254
2,1, 1,21, 0, 3,30.00,40.00,WinterDesignDay
8,-36.2
10,11967207.159638064
321,1158508450.6194797
2,1, 1,21, 0, 3,40.00,50.00,WinterDesignDay
8,-36.2
10,11967204.632959368
321,1155534485.653277
2,1, 1,21, 0, 3,50.00,60.00,WinterDesignDay
8,-36.2
10,11967203.85553891
321,1156221257.6430476
2,1, 1,21, 0, 3, 0.00,60.00,WinterDesignDay
555,17.999995070273756
595,17.999993298951869
635,18.33910425889818
675,17.999984293020586
715,17.999997861734245
2,1, 1,21, 0, 4, 0.00,10.00,WinterDesignDay
8,-36.2
10,11967203.85553891
321,1166519048.3264387
2,1, 1,21, 0, 4,10.00,20.00,WinterDesignDay
8,-36.2
10,11967203.85553891
321,1156999416.0531595
2,1, 1,21, 0, 4,20.00,30.00,WinterDesignDay
8,-36.2
10,11967203.85553891
321,1157248055.7758527
2,1, 1,21, 0, 4,30.00,40.00,WinterDesignDay
8,-36.2
10,11967203.85553891
321,1167308316.8410304
2,1, 1,21, 0, 4,40.00,50.00,WinterDesignDay
8,-36.2
10,11967203.85553891
321,1157623171.7997809
2,1, 1,21, 0, 4,50.00,60.00,WinterDesignDay
8,-36.2
10,11967203.85553891
321,1157751228.9789117
2,1, 1,21, 0, 4, 0.00,60.00,WinterDesignDay
555,17.999993916271003
595,17.999991329721266
635,17.999985697029556
675,17.9999828000883
715,17.999997560289296
2,1, 1,21, 0, 5, 0.00,10.00,WinterDesignDay
8,-36.2
10,11967203.85553891
321,1167688615.265884
2,1, 1,21, 0, 5,10.00,20.00,WinterDesignDay
8,-36.2
10,11967203.85553891
321,1157937098.5090056
2,1, 1,21, 0, 5,20.00,30.00,WinterDesignDay
8,-36.2
10,11967203.85553891
321,1158008062.9993518
2,1, 1,21, 0, 5,30.00,40.00,WinterDesignDay
8,-36.2
10,11967203.85553891
321,1167882305.7307306
2,1, 1,21, 0, 5,40.00,50.00,WinterDesignDay
8,-36.2
10,11967203.85553891
321,1158100862.7126308
2,1, 1,21, 0, 5,50.00,60.00,WinterDesignDay
8,-36.2
10,11967203.85553891
321,1158662920.4357758
2,1, 1,21, 0, 5, 0.00,60.00,WinterDesignDay
555,17.999994242250616
595,17.99999166313454
635,17.999989654784188
675,17.999985049452467
715,17.999997652675146
2,1, 1,21, 0, 6, 0.00,10.00,WinterDesignDay
8,-36.2
10,11967203.85553891
321,1167464342.004539
2,1, 1,21, 0, 6,10.00,20.00,WinterDesignDay
8,-36.2
10,11967203.85553891
321,1158201065.3568319
2,1, 1,21, 0, 6,20.00,30.00,WinterDesignDay
8,-36.2
10,11967203.85553891
321,1168101023.376989
2,1, 1,21, 0, 6,30.00,40.00,WinterDesignDay
8,-36.2
10,11967203.85553891
321,1158258254.5987516
2,1, 1,21, 0, 6,40.00,50.00,WinterDesignDay
8,-36.2
10,11967203.85553891
321,1158265038.0484224
2,1, 1,21, 0, 6,50.00,60.00,WinterDesignDay
8,-36.2
10,11967203.85553891
321,1168143322.3051019
2,1, 1,21, 0, 6, 0.00,60.00,WinterDesignDay
555,17.999994337386263
595,17.999991762964166
635,17.999990044915895
675,17.999985987750077
715,17.999997675663694
2,1, 1,21, 0, 7, 0.00,10.00,WinterDesignDay
8,-36.2
10,11973388.750935324
321,1187270616.846877
2,1, 1,21, 0, 7,10.00,20.00,WinterDesignDay
8,-36.2
10,11967203.85553891
321,1171103006.2712129
2,1, 1,21, 0, 7,20.00,30.00,WinterDesignDay
8,-36.2
10,11967203.85553891
321,1171973781.449398
2,1, 1,21, 0, 7,30.00,40.00,WinterDesignDay
8,-36.2
10,11967203.85553891
321,1166459172.9568244
2,1, 1,21, 0, 7,40.00,50.00,WinterDesignDay
8,-36.2
10,11967203.85553891
321,1163924646.2933646
2,1, 1,21, 0, 7,50.00,60.00,WinterDesignDay
8,-36.2
10,11967203.85553891
321,1173680318.1839078
2,1, 1,21, 0, 7, 0.00,60.00,WinterDesignDay
555,17.999995530708035
595,17.9999937206265
635,17.99999234788535
675,19.946182294882005
715,17.999998195065236
2,1, 1,21, 0, 8, 0.00,10.00,WinterDesignDay
8,-36.2
10,15670042.18101506
321,1265410502.6974376
2,1, 1,21, 0, 8,10.00,20.00,WinterDesignDay
8,-36.2
10,15651549.251738003
321,1197992695.751105
2,1, 1,21, 0, 8,20.00,30.00,WinterDesignDay
8,-36.2
10,15651548.19272369
321,1209865378.8758634
2,1, 1,21, 0, 8,30.00,40.00,WinterDesignDay
8,-36.2
10,15651548.19272369
321,1193738646.0361267
2,1, 1,21, 0, 8,40.00,50.00,WinterDesignDay
8,-36.2
10,15651548.19272369
321,1199690723.659515
2,1, 1,21, 0, 8,50.00,60.00,WinterDesignDay
8,-36.2
10,15651548.19272369
321,1189133099.175995
2,1, 1,21, 0, 8, 0.00,60.00,WinterDesignDay
555,19.958463895832457
595,19.976188728355255
635,17.9999914713313
675,21.936005227730005
715,17.99999795779095
2,1, 1,21, 0, 9, 0.00,10.00,WinterDesignDay
8,-36.2
10,35814516.58887412
321,1289714192.6456433
2,1, 1,21, 0, 9,10.00,20.00,WinterDesignDay
8,-36.2
10,35843282.36515934
321,1165723630.66755
2,1, 1,21, 0, 9,20.00,30.00,WinterDesignDay
8,-36.2
10,35800135.20848395
321,1227220678.9311009
2,1, 1,21, 0, 9,30.00,40.00,WinterDesignDay
8,-36.2
10,35800139.19955642
321,1218946974.9455014
2,1, 1,21, 0, 9,40.00,50.00,WinterDesignDay
8,-36.2
10,35800143.19277799
321,1216103586.0123599
2,1, 1,21, 0, 9,50.00,60.00,WinterDesignDay
8,-36.2
10,35800146.400241348
321,1209361451.8416832
2,1, 1,21, 0, 9, 0.00,60.00,WinterDesignDay
555,21.96531455554918
595,21.971699629642854
635,19.97750514812542
675,22.000000061266236
715,17.999997181262903
2,1, 1,21, 0,10, 0.00,10.00,WinterDesignDay
8,-36.2
10,60774337.11476736
321,1238680864.1350768
2,1, 1,21, 0,10,10.00,20.00,WinterDesignDay
8,-36.2
10,60759955.43835771
321,1178729916.9779764
2,1, 1,21, 0,10,20.00,30.00,WinterDesignDay
8,-36.2
10,60803074.63083762
321,1206644674.2829238
2,1, 1,21, 0,10,30.00,40.00,WinterDesignDay
8,-36.2
10,60759967.68787498
321,1203864998.2229193
2,1, 1,21, 0,10,40.00,50.00,WinterDesignDay
8,-36.2
10,60803074.63083762
321,1194710837.603021
2,1, 1,21, 0,10,50.00,60.00,WinterDesignDay
8,-36.2
10,60759979.25071096
321,1206557061.828371
2,1, 1,21, 0,10, 0.00,60.00,WinterDesignDay
555,21.999999685907299
595,22.000000172760634
635,21.975934682721129
675,22.057721214791746
715,17.99999651484322
2,1, 1,21, 0,11, 0.00,10.00,WinterDesignDay
8,-36.2
10,63615551.22336894
321,1199894237.5505489
2,1, 1,21, 0,11,10.00,20.00,WinterDesignDay
8,-36.2
10,63615551.22336894
321,1194470394.788644
2,1, 1,21, 0,11,20.00,30.00,WinterDesignDay
8,-36.2
10,63615551.22336894
321,1193931475.5295313
2,1, 1,21, 0,11,30.00,40.00,WinterDesignDay
8,-36.2
10,63615551.22336894
321,1193382473.9500685
2,1, 1,21, 0,11,40.00,50.00,WinterDesignDay
8,-36.2
10,63615551.22336894
321,1192986497.3401836
2,1, 1,21, 0,11,50.00,60.00,WinterDesignDay
8,-36.2
10,63615551.22336894
321,1196315803.1637443
2,1, 1,21, 0,11, 0.00,60.00,WinterDesignDay
555,22.000000710450313
595,21.99999999744071
635,22.000000120338915
675,22.269442704059455
715,17.999995444433336
2,1, 1,21, 0,12, 0.00,10.00,WinterDesignDay
8,-36.2
10,66428027.81590026
321,1188492722.0019334
2,1, 1,21, 0,12,10.00,20.00,WinterDesignDay
8,-36.2
10,66428027.81590026
321,1188224726.4032744