Program Version,EnergyPlus, Version 8.9.0-eba93e8e1b, YMD=2019.04.04 18:00
1,5,Environment Title[],Latitude[deg],Longitude[deg],Time Zone[],Elevation[m]
2,8,Day of Simulation[],Month[],Day of Month[],DST Indicator[1=yes 0=no],Hour[],StartMinute[],EndMinute[],DayType
3,5,Cumulative Day of Simulation[],Month[],Day of Month[],DST Indicator[1=yes 0=no],DayType  ! When Daily Report Variables Requested
4,2,Cumulative Days of Simulation[],Month[]  ! When Monthly Report Variables Requested
5,1,Cumulative Days of Simulation[] ! When Run Period Report Variables Requested
6,1,Calendar Year of Simulation[] ! When Annual Report Variables Requested
7,9,Environment,Site Outdoor Air Drybulb Temperature [C] !Monthly [Value,Min,Day,Hour,Minute,Max,Day,Hour,Minute]
8,1,Environment,Site Outdoor Air Wetbulb Temperature [C] !TimeStep
357,1,AUDIENCE SEATING AREA PERMANENT - OTHER-SCH-C-SPACE FUNCTION ZN,Zone Air Temperature [C] !Hourly
358,7,AUDIENCE SEATING AREA PERMANENT - OTHER-SCH-C-SPACE FUNCTION ZN,Zone Air Relative Humidity [%] !Daily [Value,Min,Hour,Minute,Max,Hour,Minute]
397,1,AUDIENCE SEATING AREA PERMANENT - OTHER-SCH-D-SPACE FUNCTION ZN,Zone Air Temperature [C] !Hourly
398,7,AUDIENCE SEATING AREA PERMANENT - OTHER-SCH-D-SPACE FUNCTION ZN,Zone Air Relative Humidity [%] !Daily [Value,Min,Hour,Minute,Max,Hour,Minute]
437,1,AUDIENCE SEATING AREA PERMANENT - OTHER-SCH-E-SPACE FUNCTION ZN,Zone Air Temperature [C] !Hourly
438,7,AUDIENCE SEATING AREA PERMANENT - OTHER-SCH-E-SPACE FUNCTION ZN,Zone Air Relative Humidity [%] !Daily [Value,Min,Hour,Minute,Max,Hour,Minute]
477,1,AUDIENCE SEATING AREA PERMANENT - OTHER-SCH-F-SPACE FUNCTION ZN,Zone Air Temperature [C] !Hourly
478,7,AUDIENCE SEATING AREA PERMANENT - OTHER-SCH-F-SPACE FUNCTION ZN,Zone Air Relative Humidity [%] !Daily [Value,Min,Hour,Minute,Max,Hour,Minute]
517,1,AUDIENCE SEATING AREA PERMANENT - OTHER-SCH-G-SPACE FUNCTION ZN,Zone Air Temperature [C] !Hourly
518,7,AUDIENCE SEATING AREA PERMANENT - OTHER-SCH-G-SPACE FUNCTION ZN,Zone Air Relative Humidity [%] !Daily [Value,Min,Hour,Minute,Max,Hour,Minute]
10,1,Electricity:Facility [J] !TimeStep
668,1,DistrictCooling:Facility [J] !TimeStep
631,1,DistrictHeating:Facility [J] !TimeStep
End of Data Dictionary
1,FORT MCMURRAY AP ANN CLG .4% CONDNS DB=>MWB,  56.65,-111.22,  -7.00, 369.10
2,1, 7,21, 0, 1, 0.00,10.00,SummerDesignDay
8,14.218136923962174
10,4264549.266397173
631,5688731.544869256
668,0.0
2,1, 7,21, 0, 1,10.00,20.00,SummerDesignDay
8,14.171982153293495
10,4264549.266397173
631,7274953.145501368
668,0.0
2,1, 7,21, 0, 1,20.00,30.00,SummerDesignDay
8,14.125744780286427
10,4264549.266397173
631,9727797.76229151
668,0.0
2,1, 7,21, 0, 1,30.00,40.00,SummerDesignDay
8,14.079436086331978
10,4264549.266397173
631,10615471.800814026
668,0.0
2,1, 7,21, 0, 1,40.00,50.00,SummerDesignDay
8,14.033050387896898
10,4264549.266397173
631,12165288.85664328
668,0.0
2,1, 7,21, 0, 1,50.00,60.00,SummerDesignDay
8,13.986581233564835
10,4264549.266397173
631,13585520.536336136
668,0.0
2,1, 7,21, 0, 1, 0.00,60.00,SummerDesignDay
357,19.35620651619282
397,19.352760476034136
437,19.28915405943584
477,22.000000249867424
517,22.035223854536765
2,1, 7,21, 0, 2, 0.00,10.00,SummerDesignDay
8,13.95555882260429
10,2157783.900450083
631,0.0
668,0.0
2,1, 7,21, 0, 2,10.00,20.00,SummerDesignDay
8,13.924507755336454
10,2157783.900450083
631,0.0
668,0.0
2,1, 7,21, 0, 2,20.00,30.00,SummerDesignDay
8,13.893416042989206
10,2157783.900450083
631,0.0
668,0.0
2,1, 7,21, 0, 2,30.00,40.00,SummerDesignDay
8,13.862289589689029
10,2157783.900450083
631,0.0
668,0.0
2,1, 7,21, 0, 2,40.00,50.00,SummerDesignDay
8,13.831134407608739
10,2157783.900450083
631,0.0
668,0.0
2,1, 7,21, 0, 2,50.00,60.00,SummerDesignDay
8,13.799938415548118
10,2157783.900450083
631,0.0
668,0.0
2,1, 7,21, 0, 2, 0.00,60.00,SummerDesignDay
357,18.78524723445991
397,18.74766236261782
437,18.72718526943153
477,20.807854307027065
517,21.250570178602666
2,1, 7,21, 0, 3, 0.00,10.00,SummerDesignDay
8,13.776521671948676
10,2157783.900450083
631,0.0
668,0.0
2,1, 7,21, 0, 3,10.00,20.00,SummerDesignDay
8,13.753085235778466
10,2157783.900450083
631,0.0
668,0.0
2,1, 7,21, 0, 3,20.00,30.00,SummerDesignDay
8,13.729636002354969
10,2157783.900450083
631,0.0
668,0.0
2,1, 7,21, 0, 3,30.00,40.00,SummerDesignDay
8,13.706147375533054
10,2157783.900450083
631,0.0
668,0.0
2,1, 7,21, 0, 3,40.00,50.00,SummerDesignDay
8,13.682651961920304
10,2157783.900450083
631,0.0
668,0.0
2,1, 7,21, 0, 3,50.00,60.00,SummerDesignDay
8,13.659136670643687
10,2157783.900450083
631,0.0
668,0.0
2,1, 7,21, 0, 3, 0.00,60.00,SummerDesignDay
357,18.342416211077859
397,18.310518507484397
437,18.296366685348123
477,20.156021319080087
517,20.73574598271957
2,1, 7,21, 0, 4, 0.00,10.00,SummerDesignDay
8,13.63560137410855
10,1716623.631512444
631,0.0
668,0.0
2,1, 7,21, 0, 4,10.00,20.00,SummerDesignDay
8,13.612040802606578
10,1716623.631512444
631,0.0
668,0.0
2,1, 7,21, 0, 4,20.00,30.00,SummerDesignDay
8,13.58846620506876
10,1716623.631512444
631,843884.0391179099
668,0.0
2,1, 7,21, 0, 4,30.00,40.00,SummerDesignDay
8,13.56487178447336
10,1716623.631512444
631,3254786.4964509347
668,0.0
2,1, 7,21, 0, 4,40.00,50.00,SummerDesignDay
8,13.541257354069103
10,1716623.631512444
631,4078777.17735123
668,0.0
2,1, 7,21, 0, 4,50.00,60.00,SummerDesignDay
8,13.517617463812285
10,1716623.631512444
631,5377933.969876351
668,0.0
2,1, 7,21, 0, 4, 0.00,60.00,SummerDesignDay
357,18.041037543588055
397,18.02951683318437
437,18.02417411891513
477,19.795174771303384
517,20.42802423488929
2,1, 7,21, 0, 5, 0.00,10.00,SummerDesignDay
8,13.50185415824011
10,1716623.631512444
631,6253182.895137057
668,0.0
2,1, 7,21, 0, 5,10.00,20.00,SummerDesignDay
8,13.486076034032447
10,1716623.631512444
631,7068253.224656524
668,0.0
2,1, 7,21, 0, 5,20.00,30.00,SummerDesignDay
8,13.470289340350983
10,1716623.631512444
631,7854645.976231502
668,0.0
2,1, 7,21, 0, 5,30.00,40.00,SummerDesignDay
8,13.454493322631063
10,1716623.631512444
631,8626243.97842381
668,0.0
2,1, 7,21, 0, 5,40.00,50.00,SummerDesignDay
8,13.438688835118548
10,1716623.631512444
631,9386182.517066274
668,0.0
2,1, 7,21, 0, 5,50.00,60.00,SummerDesignDay
8,13.422888173889437
10,1716623.631512444
631,10136446.050655466
668,0.0
2,1, 7,21, 0, 5, 0.00,60.00,SummerDesignDay
357,18.000010566603895
397,18.000004841475954
437,18.000003579595345
477,19.521673195505178
517,20.177531158941318
2,1, 7,21, 0, 6, 0.00,10.00,SummerDesignDay
8,13.438688835118548
10,1716623.631512444
631,9489079.950507859
668,0.0
2,1, 7,21, 0, 6,10.00,20.00,SummerDesignDay
8,13.454493322631063
10,1716623.631512444
631,8831594.52470374
668,0.0
2,1, 7,21, 0, 6,20.00,30.00,SummerDesignDay
8,13.470289340350983
10,1716623.631512444
631,8162484.966941087
668,0.0
2,1, 7,21, 0, 6,30.00,40.00,SummerDesignDay
8,13.486076034032447
10,1716623.631512444
631,7496986.472823046
668,0.0
2,1, 7,21, 0, 6,40.00,50.00,SummerDesignDay
8,13.50185415824011
10,1716623.631512444
631,6828809.163898007
668,0.0
2,1, 7,21, 0, 6,50.00,60.00,SummerDesignDay
8,13.517617463812285
10,1716623.631512444
631,6152277.654909658
668,0.0
2,1, 7,21, 0, 6, 0.00,60.00,SummerDesignDay
357,18.000000000999504
397,18.00000000044037
437,18.00000000032711
477,19.4575755361068
517,20.120511159661253
2,1, 7,21, 0, 7, 0.00,10.00,SummerDesignDay
8,13.572736920571789
10,3193160.0418343364
631,3728768.5957687397
668,0.0
2,1, 7,21, 0, 7,10.00,20.00,SummerDesignDay
8,13.627748229152554
10,3193160.0418343364
631,1291316.6696005625
668,0.0
2,1, 7,21, 0, 7,20.00,30.00,SummerDesignDay
8,13.682651961920304
10,3193160.0418343364
631,0.0
668,0.0
2,1, 7,21, 0, 7,30.00,40.00,SummerDesignDay
8,13.737448093244995
10,3193160.0418343364
631,0.0
668,0.0
2,1, 7,21, 0, 7,40.00,50.00,SummerDesignDay
8,13.792137011831216
10,3193160.0418343364
631,0.0
668,0.0
2,1, 7,21, 0, 7,50.00,60.00,SummerDesignDay
8,13.846719282840333
10,3193160.0418343364
631,0.0
668,0.0
2,1, 7,21, 0, 7, 0.00,60.00,SummerDesignDay
357,18.079416185891178
397,18.074213001134955
437,18.067197780024676
477,19.814227373518319
517,20.518376988282218
2,1, 7,21, 0, 8, 0.00,10.00,SummerDesignDay
8,13.978831900527043
10,6303790.10138442
631,95105367.69795174
668,0.0
2,1, 7,21, 0, 8,10.00,20.00,SummerDesignDay
8,14.110321014287419
10,6303790.10138442
631,17685626.503647407
668,0.0
2,1, 7,21, 0, 8,20.00,30.00,SummerDesignDay
8,14.241191509616986
10,6303790.10138442
631,44229259.155488628
668,0.0
2,1, 7,21, 0, 8,30.00,40.00,SummerDesignDay
8,14.371447531304272
10,6303790.10138442
631,9264603.65259149
668,0.0
2,1, 7,21, 0, 8,40.00,50.00,SummerDesignDay
8,14.501093766564925
10,6303790.10138442
631,4578049.161824492
668,0.0
2,1, 7,21, 0, 8,50.00,60.00,SummerDesignDay
8,14.630134792273804
10,6303790.10138442
631,0.0
668,0.0
2,1, 7,21, 0, 8, 0.00,60.00,SummerDesignDay
357,20.074428806740895
397,20.074248973422958
437,20.073945859327706
477,20.57335750439455
517,21.28474744436716
2,1, 7,21, 0, 9, 0.00,10.00,SummerDesignDay
8,14.773641492809972
10,14307697.837824434
631,115524839.61847945
668,0.0
2,1, 7,21, 0, 9,10.00,20.00,SummerDesignDay
8,14.91640948124148
10,14307697.837824434
631,16261392.936903187
668,0.0
2,1, 7,21, 0, 9,20.00,30.00,SummerDesignDay
8,15.05843890714102
10,14307697.837824434
631,49544691.008578199
668,0.0
2,1, 7,21, 0, 9,30.00,40.00,SummerDesignDay
8,15.199735893563798
10,14307697.837824434
631,160949.60597630524
668,0.0
2,1, 7,21, 0, 9,40.00,50.00,SummerDesignDay
8,15.340306256439395
10,14307697.837824434
631,0.0
668,0.0
2,1, 7,21, 0, 9,50.00,60.00,SummerDesignDay
8,15.48015101768072
10,14307697.837824434
631,0.0
668,0.0
2,1, 7,21, 0, 9, 0.00,60.00,SummerDesignDay
357,22.153284226176667
397,22.117761335022409
437,22.208355987292113
477,22.188027900296537
517,22.351422361605115
2,1, 7,21, 0,10, 0.00,10.00,SummerDesignDay
8,15.60467292907716
10,19861215.372988386
631,0.0
668,0.0
2,1, 7,21, 0,10,10.00,20.00,SummerDesignDay
8,15.72862731650033
10,19861215.372988386
631,0.0
668,1211004.9741417233
2,1, 7,21, 0,10,20.00,30.00,SummerDesignDay
8,15.852017409284228
10,19861215.372988386
631,0.0
668,9243065.414990092
2,1, 7,21, 0,10,30.00,40.00,SummerDesignDay
8,15.974848118364367
10,19861215.372988386
631,0.0
668,29213258.99435257
2,1, 7,21, 0,10,40.00,50.00,SummerDesignDay
8,16.097123145563505
10,19861215.372988386
631,0.0
668,41030361.46180782
2,1, 7,21, 0,10,50.00,60.00,SummerDesignDay
8,16.218846351168599
10,19861215.372988386
631,0.0
668,65400720.538222398
2,1, 7,21, 0,10, 0.00,60.00,SummerDesignDay
357,23.372639606503556
397,23.73620981691837
437,23.683533761440598
477,23.37297553320202
517,23.45686667671735
2,1, 7,21, 0,11, 0.00,10.00,SummerDesignDay
8,16.325793027093189
10,21121673.28423878
631,0.0
668,83663949.37721484
2,1, 7,21, 0,11,10.00,20.00,SummerDesignDay
8,16.432322158488288
10,21121673.28423878
631,0.0
668,98509849.02393086
2,1, 7,21, 0,11,20.00,30.00,SummerDesignDay
8,16.538424180249178
10,21121673.28423878
631,0.0
668,112077208.12843505
2,1, 7,21, 0,11,30.00,40.00,SummerDesignDay
8,16.644108396469087
10,21121673.28423878
631,0.0
668,124903677.47280088
2,1, 7,21, 0,11,40.00,50.00,SummerDesignDay
8,16.749376736593655
10,21121673.28423878
631,0.0
668,137543731.21408058
2,1, 7,21, 0,11,50.00,60.00,SummerDesignDay
8,16.854232613237156
10,21121673.28423878
631,0.0
668,150036106.18407477
2,1, 7,21, 0,11, 0.00,60.00,SummerDesignDay
357,23.999931828979617
397,23.999998232177935
437,23.999996491660956
477,23.99978897610625
517,23.999770607865164
2,1, 7,21, 0,12, 0.00,10.00,SummerDesignDay
8,16.92390823520069
10,20680513.015301143
631,0.0
668,158140088.44649226
2,1, 7,21, 0,12,10.00,20.00,SummerDesignDay
8,16.99340178950456
10,20680513.015301143
631,0.0
668,166376949.82209347
2,1, 7,21, 0,12,20.00,30.00,SummerDesignDay
8,17.06272006743463
10,20680513.015301143
631,0.0
668,174583194.63686449
2,1, 7,21, 0,12,30.00,40.00,SummerDesignDay
8,17.131853229172639
10,20680513.015301143
631,0.0
668,182754394.52784495
2,1, 7,21, 0,12,40.00,50.00,SummerDesignDay
8,17.200807172194087
10,20680513.015301143
631,0.0
668,190746837.8950074
2,1, 7,21, 0,12,50.00,60.00,SummerDesignDay
8,17.269582116758607
10,20680513.015301143
631,0.0
668,197923404.88621358
2,1, 7,21, 0,12, 0.00,60.00,SummerDesignDay
357,23.999999991791769
397,23.99999999981662
437,23.99999999963536
477,23.999999966072634
517,23.99999996420155
2,1, 7,21, 0,13, 0.00,10.00,SummerDesignDay
8,17.32447360221357
10,20239352.746363507
631,0.0
668,207078647.8886491
2,1, 7,21, 0,13,10.00,20.00,SummerDesignDay
8,17.379251291230806
10,20239352.746363507
631,0.0
668,212936697.41013114
2,1, 7,21, 0,13,20.00,30.00,SummerDesignDay
8,17.433921312061729
10,20239352.746363507
631,0.0
668,218250208.26895089
2,1, 7,21, 0,13,30.00,40.00,SummerDesignDay
8,17.488473222557489
10,20239352.746363507
631,0.0
668,223480374.2145397
2,1, 7,21, 0,13,40.00,50.00,SummerDesignDay
8,17.542913447755134
10,20239352.746363507
631,0.0
668,228692463.6938876
2,1, 7,21, 0,13,50.00,60.00,SummerDesignDay
8,17.59724609886134
10,20239352.746363507
631,0.0
668,233898308.63964585
2,1, 7,21, 0,13, 0.00,60.00,SummerDesignDay
357,23.999999999999078
397,24.00000000000001
437,23.999999999999955
477,23.999999999994487
517,23.99999999999393
2,1, 7,21, 0,14, 0.00,10.00,SummerDesignDay
8,17.6311450462694
10,20239352.746363507
631,0.0
668,237163816.41637875
2,1, 7,21, 0,14,10.00,20.00,SummerDesignDay
8,17.665000449016245
10,20239352.746363507
631,0.0
668,240424097.5286919
2,1, 7,21, 0,14,20.00,30.00,SummerDesignDay
8,17.698812743128934
10,20239352.746363507
631,0.0
668,243679301.15514148
2,1, 7,21, 0,14,30.00,40.00,SummerDesignDay
8,17.732582050940107
10,20239352.746363507
631,0.0
668,246930200.81231783
2,1, 7,21, 0,14,40.00,50.00,SummerDesignDay
8,17.766307345121004
10,20239352.746363507
631,0.0
668,250177520.81176765
2,1, 7,21, 0,14,50.00,60.00,SummerDesignDay
8,17.79999023167558
10,20239352.746363507
631,0.0
668,253421760.33160607
2,1, 7,21, 0,14, 0.00,60.00,SummerDesignDay
357,23.999999999999969
397,24.00000000000001
437,24.000000000000019
477,24.0
517,24.000000000000005
2,1, 7,21, 0,15, 0.00,10.00,SummerDesignDay
8,17.79999023167558
10,20239352.746363507
631,0.0
668,247975703.03550617
2,1, 7,21, 0,15,10.00,20.00,SummerDesignDay
8,17.79999023167558
10,20239352.746363507
631,0.0
668,247768527.4222882
2,1, 7,21, 0,15,20.00,30.00,SummerDesignDay
8,17.79999023167558
10,20239352.746363507
631,0.0
668,247760116.8298502
2,1, 7,21, 0,15,30.00,40.00,SummerDesignDay
8,17.79999023167558
10,20239352.746363507
631,0.0
668,247729100.58468858
2,1, 7,21, 0,15,40.00,50.00,SummerDesignDay
8,17.79999023167558
10,20239352.746363507
631,0.0
668,247701438.09097366
2,1, 7,21, 0,15,50.00,60.00,SummerDesignDay
8,17.79999023167558
10,20239352.746363507
631,0.0
668,247676957.71967656
2,1, 7,21, 0,15, 0.00,60.00,SummerDesignDay
357,24.00000000000001
397,23.99999999999999
437,24.0
477,24.00000000000001
517,24.000000000000005
2,1, 7,21, 0,16, 0.00,10.00,SummerDesignDay
8,17.759562446305357
10,20239352.746363507
631,0.0
668,249206319.64415515
2,1, 7,21, 0,16,10.00,20.00,SummerDesignDay
8,17.71907809634183
10,20239352.746363507
631,0.0
668,245587821.88737098
2,1, 7,21, 0,16,20.00,30.00,SummerDesignDay
8,17.67853788661001
10,20239352.746363507
631,0.0
668,241715128.89514695
2,1, 7,21, 0,16,30.00,40.00,SummerDesignDay
8,17.63791796367351
10,20239352.746363507
631,0.0
668,237875653.8128413
2,1, 7,21, 0,16,40.00,50.00,SummerDesignDay
8,17.59724609886134
10,20239352.746363507
631,0.0
668,234030348.86009065
2,1, 7,21, 0,16,50.00,60.00,SummerDesignDay
8,17.55650676726033
10,20239352.746363507
631,0.0
668,230183364.86177839
2,1, 7,21, 0,16, 0.00,60.00,SummerDesignDay
357,24.000000000000026
397,24.000000000000047
437,24.0
477,24.0
517,24.00000000000001
2,1, 7,21, 0,17, 0.00,10.00,SummerDesignDay
8,17.50209486331892
10,19091435.72004618
631,0.0
668,221239225.15573723
2,1, 7,21, 0,17,10.00,20.00,SummerDesignDay
8,17.447570789624618
10,19091435.72004618
631,0.0
668,215466475.6644527
2,1, 7,21, 0,17,20.00,30.00,SummerDesignDay
8,17.392929544208135
10,19091435.72004618
631,0.0
668,209947105.1269502
2,1, 7,21, 0,17,30.00,40.00,SummerDesignDay
8,17.33818013976614
10,19091435.72004618
631,0.0
668,204390971.9120663
2,1, 7,21, 0,17,40.00,50.00,SummerDesignDay
8,17.283317298559309
10,19091435.72004618
631,0.0
668,198789847.4211793
2,1, 7,21, 0,17,50.00,60.00,SummerDesignDay
8,17.22833552437677
10,19091435.72004618
631,0.0
668,192446153.32707686
2,1, 7,21, 0,17, 0.00,60.00,SummerDesignDay
357,23.999999999999987
397,24.000000000000005
437,23.999999999999998
477,24.0
517,24.00000000000001
2,1, 7,21, 0,18, 0.00,10.00,SummerDesignDay
8,17.159453019160176
10,17493355.15399657
631,0.0
668,180568031.07254274
2,1, 7,21, 0,18,10.00,20.00,SummerDesignDay
8,17.090391773337136
10,17493355.15399657
631,0.0
668,172526524.95853663
2,1, 7,21, 0,18,20.00,30.00,SummerDesignDay
8,17.021151077964786
10,17493355.15399657
631,0.0
668,164537154.7864461
2,1, 7,21, 0,18,30.00,40.00,SummerDesignDay
8,16.951729380464653
10,17493355.15399657
631,0.0
668,156542653.82625679
2,1, 7,21, 0,18,40.00,50.00,SummerDesignDay
8,16.882126503829249
10,17493355.15399657
631,0.0
668,148563167.06313528
2,1, 7,21, 0,18,50.00,60.00,SummerDesignDay
8,16.812341807494034
10,17493355.15399657
631,0.0
668,140589334.07832799
2,1, 7,21, 0,18, 0.00,60.00,SummerDesignDay
357,24.000000000000033
397,24.0
437,24.000000000000033
477,23.99999999999999
517,24.000000000000005
2,1, 7,21, 0,19, 0.00,10.00,SummerDesignDay
8,16.707321072823203
10,15129996.570402075
631,0.0
668,114972241.6268557
2,1, 7,21, 0,19,10.00,20.00,SummerDesignDay
8,16.601881826644556
10,15129996.570402075
631,0.0
668,102895184.3907012
2,1, 7,21, 0,19,20.00,30.00,SummerDesignDay
8,16.496030555252849
10,15129996.570402075
631,0.0
668,90751237.77886124
2,1, 7,21, 0,19,30.00,40.00,SummerDesignDay
8,16.389760181474104
10,15129996.570402075
631,0.0
668,78681410.07994209
2,1, 7,21, 0,19,40.00,50.00,SummerDesignDay
8,16.283067654262039
10,15129996.570402075
631,0.0
668,66640557.73951778
2,1, 7,21, 0,19,50.00,60.00,SummerDesignDay
8,16.17595057957811
10,15129996.570402075
631,0.0
668,54622257.59121136
2,1, 7,21, 0,19, 0.00,60.00,SummerDesignDay
357,24.0
397,24.000000000000005
437,24.00000000000001
477,24.0
517,24.0
2,1, 7,21, 0,20, 0.00,10.00,SummerDesignDay
8,16.097123145563505
10,18087571.02644318
631,0.0
668,44905935.500841427
2,1, 7,21, 0,20,10.00,20.00,SummerDesignDay
8,16.018070242471564
10,18087571.02644318
631,0.0
668,38779708.48860536
2,1, 7,21, 0,20,20.00,30.00,SummerDesignDay
8,15.938779752340516
10,18087571.02644318
631,0.0
668,31555922.40711552
2,1, 7,21, 0,20,30.00,40.00,SummerDesignDay
8,15.85926152575189
10,18087571.02644318
631,0.0
668,24488111.921957394
2,1, 7,21, 0,20,40.00,50.00,SummerDesignDay
8,15.779503718563929
10,18087571.02644318
631,0.0
668,17378637.46616122
2,1, 7,21, 0,20,50.00,60.00,SummerDesignDay
8,15.699515709672767
10,18087571.02644318
631,0.0
668,13219904.277762935
2,1, 7,21, 0,20, 0.00,60.00,SummerDesignDay
357,23.99510512475226
397,23.99787620098824
437,23.558078813041857
477,23.993205112831107
517,24.000000000000019
2,1, 7,21, 0,21, 0.00,10.00,SummerDesignDay
8,15.63389147320404
10,17904504.520285388
631,0.0
668,11661318.76822583
2,1, 7,21, 0,21,10.00,20.00,SummerDesignDay
8,15.56810827419793
10,17904504.520285388
631,0.0
668,10323554.588119364
2,1, 7,21, 0,21,20.00,30.00,SummerDesignDay
8,15.502170882753524
10,17904504.520285388
631,0.0
668,8993674.966502022
2,1, 7,21, 0,21,30.00,40.00,SummerDesignDay
8,15.436068032613852
10,17904504.520285388
631,0.0
668,7650765.246230782
2,1, 7,21, 0,21,40.00,50.00,SummerDesignDay
8,15.369804371206009
10,17904504.520285388
631,0.0
668,6296788.821946047
2,1, 7,21, 0,21,50.00,60.00,SummerDesignDay
8,15.303384603594449
10,17904504.520285388
631,0.0
668,4931491.193544234
2,1, 7,21, 0,21, 0.00,60.00,SummerDesignDay
357,23.537711524254165
397,23.638452942214714
437,22.54026371059393
477,23.846293898196789
517,24.000000000000026
2,1, 7,21, 0,22, 0.00,10.00,SummerDesignDay
8,15.236797685071274
10,14339209.285605694
631,0.0
668,3302387.0840401255
2,1, 7,21, 0,22,10.00,20.00,SummerDesignDay
8,15.170047891787942
10,14339209.285605694
631,0.0
668,1871212.6129770796
2,1, 7,21, 0,22,20.00,30.00,SummerDesignDay
8,15.103134826860483
10,14339209.285605694
631,0.0
668,436021.20198367946
2,1, 7,21, 0,22,30.00,40.00,SummerDesignDay
8,15.036063385178485
10,14339209.285605694
631,0.0
668,0.0
2,1, 7,21, 0,22,40.00,50.00,SummerDesignDay
8,14.968821767219835
10,14339209.285605694
631,0.0
668,0.0
2,1, 7,21, 0,22,50.00,60.00,SummerDesignDay
8,14.90141525878635
10,14339209.285605694
631,0.0
668,0.0
2,1, 7,21, 0,22, 0.00,60.00,SummerDesignDay
357,21.975824966416913
397,22.831607258677363
437,21.643941461099634
477,23.174207296401965
517,23.941368534288924
2,1, 7,21, 0,23, 0.00,10.00,SummerDesignDay
8,14.848873673278373
10,10859445.123475137
631,0.0
668,0.0
2,1, 7,21, 0,23,10.00,20.00,SummerDesignDay
8,14.796237168136719
10,10859445.123475137
631,4694102.488677448
668,0.0
2,1, 7,21, 0,23,20.00,30.00,SummerDesignDay
8,14.743494321455645
10,10859445.123475137
631,6605380.756077237
668,0.0
2,1, 7,21, 0,23,30.00,40.00,SummerDesignDay
8,14.690649975253665
10,10859445.123475137
631,6393037.318288702
668,0.0
2,1, 7,21, 0,23,40.00,50.00,SummerDesignDay
8,14.637704281233117
10,10859445.123475137
631,7635173.459968798
668,0.0
2,1, 7,21, 0,23,50.00,60.00,SummerDesignDay
8,14.584656914839757
10,10859445.123475137
631,8480477.818459426
668,0.0
2,1, 7,21, 0,23, 0.00,60.00,SummerDesignDay
357,20.89970858518541
397,22.031512803292427
437,20.79456106633795
477,22.501199989571288
517,23.3811910379258
2,1, 7,21, 0,24, 0.00,10.00,SummerDesignDay
8,14.531507212058875
10,7366176.05515261
631,0.0
668,0.0
2,1, 7,21, 0,24,10.00,20.00,SummerDesignDay
8,14.47825496413355
10,7366176.05515261
631,0.0
668,0.0
2,1, 7,21, 0,24,20.00,30.00,SummerDesignDay
8,14.4249000133173
10,7366176.05515261
631,1048094.8516486528
668,0.0
2,1, 7,21, 0,24,30.00,40.00,SummerDesignDay
8,14.371447531304272
10,7366176.05515261
631,2397212.111476791
668,0.0
2,1, 7,21, 0,24,40.00,50.00,SummerDesignDay
8,14.31788619902223
10,7366176.05515261
631,3285960.4563743465
668,0.0
2,1, 7,21, 0,24,50.00,60.00,SummerDesignDay
8,14.264220970176066
10,7366176.05515261
631,4050557.9451897998
668,0.0
2,1, 7,21, 0,24, 0.00,60.00,SummerDesignDay
357,20.12861782458707
397,20.60999256421775
437,20.049041496564056
477,22.043411855307807
517,22.666178091449507
3,1, 7,21, 0,SummerDesignDay
358,52.37272371520644,43.49850643949046,16,60,65.31140050865399, 6,50
398,52.24380928819935,43.082894772612579,17,40,65.31140050894816, 6,50
438,52.74353997824888,42.47854984356657,15,60,65.31140050865125, 6,50
478,50.6916932607247,41.341670099678058,15,60,62.73192149405712, 6,10
518,50.785350216168357,41.8711364162039,15,60,61.70660541177734, 6,10
4,1, 7
7,22.2505,16.5,21, 5,60,28.9,21,14,60
1,FORT MCMURRAY AP ANN HTG 99.6% CONDNS DB,  56.65,-111.22,  -7.00, 369.10
2,1, 1,21, 0, 1, 0.00,10.00,WinterDesignDay
8,-36.2
10,4264549.266397173
631,1444727611.2504845
668,0.0
2,1, 1,21, 0, 1,10.00,20.00,WinterDesignDay
8,-36.2
10,4264549.266397173
631,1445136225.4682384
668,0.0
2,1, 1,21, 0, 1,20.00,30.00,WinterDesignDay
8,-36.2
10,4264549.266397173
631,1445353188.8592869
668,0.0
2,1, 1,21, 0, 1,30.00,40.00,WinterDesignDay
8,-36.2
10,4264549.266397173
631,1445551251.8327723
668,0.0
2,1, 1,21, 0, 1,40.00,50.00,WinterDesignDay
8,-36.2
10,4264549.266397173
631,1445701361.1258693
668,0.0
2,1, 1,21, 0, 1,50.00,60.00,WinterDesignDay
8,-36.2
10,4264549.266397173
631,1445825020.9182587
668,0.0
2,1, 1,21, 0, 1, 0.00,60.00,WinterDesignDay
357,18.0
397,18.0
437,18.000000000000005
477,22.000000000000019
517,22.00000000000001
2,1, 1,21, 0, 2, 0.00,10.00,WinterDesignDay
8,-36.2
10,2157783.900450083
631,1330760598.059803
668,0.0
2,1, 1,21, 0, 2,10.00,20.00,WinterDesignDay
8,-36.2
10,2157783.900450083
631,1453703386.5633736
668,0.0
2,1, 1,21, 0, 2,20.00,30.00,WinterDesignDay
8,-36.2
10,2157783.900450083
631,1374524002.5277043
668,0.0
2,1, 1,21, 0, 2,30.00,40.00,WinterDesignDay
8,-36.2
10,2157783.900450083
631,1390544880.1474076
668,0.0
2,1, 1,21, 0, 2,40.00,50.00,WinterDesignDay
8,-36.2
10,2157783.900450083
631,1392748858.8419305
668,0.0
2,1, 1,21, 0, 2,50.00,60.00,WinterDesignDay
8,-36.2
10,2157783.900450083
631,1393419286.2596884
668,0.0
2,1, 1,21, 0, 2, 0.00,60.00,WinterDesignDay
357,18.000000000000005
397,18.0
437,18.0
477,18.037890833039623
517,18.0385441659819
2,1, 1,21, 0, 3, 0.00,10.00,WinterDesignDay
8,-36.2
10,2157783.900450083
631,1393935173.1141129
668,0.0
2,1, 1,21, 0, 3,10.00,20.00,WinterDesignDay
8,-36.2
10,2157783.900450083
631,1394337658.744741
668,0.0
2,1, 1,21, 0, 3,20.00,30.00,WinterDesignDay
8,-36.2
10,2157783.900450083
631,1394640095.3758708
668,0.0
2,1, 1,21, 0, 3,30.00,40.00,WinterDesignDay
8,-36.2
10,2157783.900450083
631,1394881440.2985306
668,0.0
2,1, 1,21, 0, 3,40.00,50.00,WinterDesignDay
8,-36.2
10,2157783.900450083
631,1395061865.862741
668,0.0
2,1, 1,21, 0, 3,50.00,60.00,WinterDesignDay
8,-36.2
10,2157783.900450083
631,1395195009.709993
668,0.0
2,1, 1,21, 0, 3, 0.00,60.00,WinterDesignDay
357,18.000000000000005
397,18.0
437,18.000000000000005
477,18.000000000000033
517,18.000000000000044
2,1, 1,21, 0, 4, 0.00,10.00,WinterDesignDay
8,-36.2
10,1716623.631512444
631,1395645888.8970478
668,0.0
2,1, 1,21, 0, 4,10.00,20.00,WinterDesignDay
8,-36.2
10,1716623.631512444
631,1395762643.6413589
668,0.0
2,1, 1,21, 0, 4,20.00,30.00,WinterDesignDay
8,-36.2
10,1716623.631512444
631,1395818043.7392424
668,0.0
2,1, 1,21, 0, 4,30.00,40.00,WinterDesignDay
8,-36.2
10,1716623.631512444
631,1395878626.0980678
668,0.0
2,1, 1,21, 0, 4,40.00,50.00,WinterDesignDay
8,-36.2
10,1716623.631512444
631,1395932993.2972859
668,0.0
2,1, 1,21, 0, 4,50.00,60.00,WinterDesignDay
8,-36.2
10,1716623.631512444
631,1395978982.5761042
668,0.0
2,1, 1,21, 0, 4, 0.00,60.00,WinterDesignDay
357,18.0
397,18.000000000000005
437,18.000000000000005
477,18.000000000000033
517,18.000000000000033
2,1, 1,21, 0, 5, 0.00,10.00,WinterDesignDay
8,-36.2
10,1716623.631512444
631,1396017126.9135988
668,0.0
2,1, 1,21, 0, 5,10.00,20.00,WinterDesignDay
8,-36.2
10,1716623.631512444
631,1396048597.888012
668,0.0
2,1, 1,21, 0, 5,20.00,30.00,WinterDesignDay
8,-36.2
10,1716623.631512444
631,1396074577.2321149
668,0.0
2,1, 1,21, 0, 5,30.00,40.00,WinterDesignDay
8,-36.2
10,1716623.631512444
631,1396096089.302745
668,0.0
2,1, 1,21, 0, 5,40.00,50.00,WinterDesignDay
8,-36.2
10,1716623.631512444
631,1396113978.3557978
668,0.0
2,1, 1,21, 0, 5,50.00,60.00,WinterDesignDay
8,-36.2
10,1716623.631512444
631,1396124696.387035
668,0.0
2,1, 1,21, 0, 5, 0.00,60.00,WinterDesignDay
357,18.0
397,18.000000000000005
437,18.0
477,18.000000000000026
517,18.00000000000003
2,1, 1,21, 0, 6, 0.00,10.00,WinterDesignDay
8,-36.2
10,1716623.631512444
631,1396133500.8673087
668,0.0
2,1, 1,21, 0, 6,10.00,20.00,WinterDesignDay
8,-36.2
10,1716623.631512444
631,1396142314.2110272
668,0.0
2,1, 1,21, 0, 6,20.00,30.00,WinterDesignDay
8,-36.2
10,1716623.631512444
631,1396150603.6177676
668,0.0
2,1, 1,21, 0, 6,30.00,40.00,WinterDesignDay
8,-36.2
10,1716623.631512444
631,1396158232.79275
668,0.0
2,1, 1,21, 0, 6,40.00,50.00,WinterDesignDay
8,-36.2
10,1716623.631512444
631,1396165129.4429539
668,0.0
2,1, 1,21, 0, 6,50.00,60.00,WinterDesignDay
8,-36.2
10,1716623.631512444
631,1396171331.8462969
668,0.0
2,1, 1,21, 0, 6, 0.00,60.00,WinterDesignDay
357,18.0
397,18.000000000000005
437,18.000000000000005
477,18.00000000000003
517,18.000000000000026
2,1, 1,21, 0, 7, 0.00,10.00,WinterDesignDay
8,-36.2
10,3193160.0418343364
631,1395179502.1678725
668,0.0
2,1, 1,21, 0, 7,10.00,20.00,WinterDesignDay
8,-36.2
10,3193160.0418343364
631,1395039671.8108118
668,0.0
2,1, 1,21, 0, 7,20.00,30.00,WinterDesignDay
8,-36.2
10,3193160.0418343364
631,1395044097.4490984
668,0.0
2,1, 1,21, 0, 7,30.00,40.00,WinterDesignDay
8,-36.2
10,3193160.0418343364
631,1395027768.8051916
668,0.0
2,1, 1,21, 0, 7,40.00,50.00,WinterDesignDay
8,-36.2
10,3193160.0418343364
631,1395012201.221021
668,0.0
2,1, 1,21, 0, 7,50.00,60.00,WinterDesignDay
8,-36.2
10,3193160.0418343364
631,1394999186.979535
668,0.0
2,1, 1,21, 0, 7, 0.00,60.00,WinterDesignDay
357,18.0
397,18.0
437,18.0
477,18.00000000000004
517,18.000000000000044
2,1, 1,21, 0, 8, 0.00,10.00,WinterDesignDay
8,-36.2
10,6303790.10138442
631,1573574471.7254112
668,0.0
2,1, 1,21, 0, 8,10.00,20.00,WinterDesignDay
8,-36.2
10,6303790.10138442
631,1371141054.5210455
668,0.0
2,1, 1,21, 0, 8,20.00,30.00,WinterDesignDay
8,-36.2
10,6303790.10138442
631,1496675981.1740528
668,0.0
2,1, 1,21, 0, 8,30.00,40.00,WinterDesignDay
8,-36.2
10,6303790.10138442
631,1468031955.776204
668,0.0
2,1, 1,21, 0, 8,40.00,50.00,WinterDesignDay
8,-36.2
10,6303790.10138442
631,1466855374.2039638
668,0.0
2,1, 1,21, 0, 8,50.00,60.00,WinterDesignDay
8,-36.2
10,6303790.10138442
631,1466174636.4919713
668,0.0
2,1, 1,21, 0, 8, 0.00,60.00,WinterDesignDay
357,19.996587902579394
397,19.996587496149414
437,19.996586746706578
477,19.996774359127384
517,19.996867657395183
2,1, 1,21, 0, 9, 0.00,10.00,WinterDesignDay
8,-36.2
10,14307697.837824434
631,1629302675.7178448
668,0.0
2,1, 1,21, 0, 9,10.00,20.00,WinterDesignDay
8,-36.2
10,14307697.837824434
631,1434067427.6792036
668,0.0
2,1, 1,21, 0, 9,20.00,30.00,WinterDesignDay
8,-36.2
10,14307697.837824434
631,1557506218.188617
668,0.0
2,1, 1,21, 0, 9,30.00,40.00,WinterDesignDay
8,-36.2
10,14307697.837824434
631,1528588870.1239005
668,0.0
2,1, 1,21, 0, 9,40.00,50.00,WinterDesignDay
8,-36.2
10,14307697.837824434
631,1527017753.4690948
668,0.0
2,1, 1,21, 0, 9,50.00,60.00,WinterDesignDay
8,-36.2
10,14307697.837824434
631,1526064901.7209283
668,0.0
2,1, 1,21, 0, 9, 0.00,60.00,WinterDesignDay
357,21.996395858297359
397,21.99638319586516
437,21.996420174145557
477,21.996452318550877
517,21.996511632572934
2,1, 1,21, 0,10, 0.00,10.00,WinterDesignDay
8,-36.2
10,19861215.372988386
631,1501499951.4278498
668,0.0
2,1, 1,21, 0,10,10.00,20.00,WinterDesignDay
8,-36.2
10,19861215.372988386
631,1500621248.5035189
668,0.0
2,1, 1,21, 0,10,20.00,30.00,WinterDesignDay
8,-36.2
10,19861215.372988386