Program Version,EnergyPlus, Version 8.9.0-eba93e8e1b, YMD=2019.04.04 17:58
1,5,Environment Title[],Latitude[deg],Longitude[deg],Time Zone[],Elevation[m]
2,8,Day of Simulation[],Month[],Day of Month[],DST Indicator[1=yes 0=no],Hour[],StartMinute[],EndMinute[],DayType
3,5,Cumulative Day of Simulation[],Month[],Day of Month[],DST Indicator[1=yes 0=no],DayType  ! When Daily Report Variables Requested
4,2,Cumulative Days of Simulation[],Month[]  ! When Monthly Report Variables Requested
5,1,Cumulative Days of Simulation[] ! When Run Period Report Variables Requested
6,1,Calendar Year of Simulation[] ! When Annual Report Variables Requested
7,9,Environment,Site Outdoor Air Drybulb Temperature [C] !Monthly [Value,Min,Day,Hour,Minute,Max,Day,Hour,Minute]
8,1,Environment,Site Outdoor Air Wetbulb Temperature [C] !TimeStep
555,1,ALL_ST=WHOLEBUILDING_FL=STORY 1_SCH=A,Zone Air Temperature [C] !Hourly
556,7,ALL_ST=WHOLEBUILDING_FL=STORY 1_SCH=A,Zone Air Relative Humidity [%] !Daily [Value,Min,Hour,Minute,Max,Hour,Minute]
595,1,ALL_ST=WHOLEBUILDING_FL=STORY 1_SCH=A 1,Zone Air Temperature [C] !Hourly
596,7,ALL_ST=WHOLEBUILDING_FL=STORY 1_SCH=A 1,Zone Air Relative Humidity [%] !Daily [Value,Min,Hour,Minute,Max,Hour,Minute]
635,1,ALL_ST=WHOLEBUILDING_FL=STORY 1_SCH=A 2,Zone Air Temperature [C] !Hourly
636,7,ALL_ST=WHOLEBUILDING_FL=STORY 1_SCH=A 2,Zone Air Relative Humidity [%] !Daily [Value,Min,Hour,Minute,Max,Hour,Minute]
675,1,ALL_ST=WHOLEBUILDING_FL=STORY 1_SCH=E,Zone Air Temperature [C] !Hourly
676,7,ALL_ST=WHOLEBUILDING_FL=STORY 1_SCH=E,Zone Air Relative Humidity [%] !Daily [Value,Min,Hour,Minute,Max,Hour,Minute]
715,1,ALL_ST=WHOLEBUILDING_FL=STORY 1_SCH=E 1,Zone Air Temperature [C] !Hourly
716,7,ALL_ST=WHOLEBUILDING_FL=STORY 1_SCH=E 1,Zone Air Relative Humidity [%] !Daily [Value,Min,Hour,Minute,Max,Hour,Minute]
10,1,Electricity:Facility [J] !TimeStep
321,1,Gas:Facility [J] !TimeStep
End of Data Dictionary
1,FORT MCMURRAY AP ANN CLG .4% CONDNS DB=>MWB,  56.65,-111.22,  -7.00, 369.10
2,1, 7,21, 0, 1, 0.00,10.00,SummerDesignDay
8,14.218136923962174
10,8080828.065803437
321,12000.0
2,1, 7,21, 0, 1,10.00,20.00,SummerDesignDay
8,14.171982153293495
10,8080828.065803437
321,12000.0
2,1, 7,21, 0, 1,20.00,30.00,SummerDesignDay
8,14.125744780286427
10,8080828.065803437
321,12000.0
2,1, 7,21, 0, 1,30.00,40.00,SummerDesignDay
8,14.079436086331978
10,8080828.065803437
321,2373916.2363345839
2,1, 7,21, 0, 1,40.00,50.00,SummerDesignDay
8,14.033050387896898
10,8080828.065803437
321,722319.1409826595
2,1, 7,21, 0, 1,50.00,60.00,SummerDesignDay
8,13.986581233564835
10,8080828.065803437
321,12000.0
2,1, 7,21, 0, 1, 0.00,60.00,SummerDesignDay
555,22.070293087253977
595,21.513159645746545
635,21.66975771971497
675,20.81982134141695
715,20.7854313078156
2,1, 7,21, 0, 2, 0.00,10.00,SummerDesignDay
8,13.95555882260429
10,8080828.065803437
321,12000.0
2,1, 7,21, 0, 2,10.00,20.00,SummerDesignDay
8,13.924507755336454
10,8080828.065803437
321,2442458.155138739
2,1, 7,21, 0, 2,20.00,30.00,SummerDesignDay
8,13.893416042989206
10,8080828.065803437
321,655358.3927809799
2,1, 7,21, 0, 2,30.00,40.00,SummerDesignDay
8,13.862289589689029
10,8080828.065803437
321,12000.0
2,1, 7,21, 0, 2,40.00,50.00,SummerDesignDay
8,13.831134407608739
10,8080828.065803437
321,12000.0
2,1, 7,21, 0, 2,50.00,60.00,SummerDesignDay
8,13.799938415548118
10,8080828.065803437
321,2497142.6837659098
2,1, 7,21, 0, 2, 0.00,60.00,SummerDesignDay
555,21.6737240827043
595,21.08003049237423
635,21.18368470765071
675,20.360783688155938
715,20.32841638301781
2,1, 7,21, 0, 3, 0.00,10.00,SummerDesignDay
8,13.776521671948676
10,8080828.065803437
321,601925.4083459437
2,1, 7,21, 0, 3,10.00,20.00,SummerDesignDay
8,13.753085235778466
10,8080828.065803437
321,12000.0
2,1, 7,21, 0, 3,20.00,30.00,SummerDesignDay
8,13.729636002354969
10,8080828.065803437
321,12000.0
2,1, 7,21, 0, 3,30.00,40.00,SummerDesignDay
8,13.706147375533054
10,8080828.065803437
321,2541067.503622065
2,1, 7,21, 0, 3,40.00,50.00,SummerDesignDay
8,13.682651961920304
10,8080828.065803437
321,558998.3870046464
2,1, 7,21, 0, 3,50.00,60.00,SummerDesignDay
8,13.659136670643687
10,8080828.065803437
321,12000.0
2,1, 7,21, 0, 3, 0.00,60.00,SummerDesignDay
555,21.365114760541386
595,20.752536488722929
635,20.825024520815206
675,20.010694747760568
715,19.98031240910026
2,1, 7,21, 0, 4, 0.00,10.00,SummerDesignDay
8,13.63560137410855
10,8080828.065803437
321,12000.0
2,1, 7,21, 0, 4,10.00,20.00,SummerDesignDay
8,13.612040802606578
10,8080828.065803437
321,2576541.8644332347
2,1, 7,21, 0, 4,20.00,30.00,SummerDesignDay
8,13.58846620506876
10,8080828.065803437
321,524324.5149145637
2,1, 7,21, 0, 4,30.00,40.00,SummerDesignDay
8,13.56487178447336
10,8080828.065803437
321,12000.0
2,1, 7,21, 0, 4,40.00,50.00,SummerDesignDay
8,13.541257354069103
10,8080828.065803437
321,12000.0
2,1, 7,21, 0, 4,50.00,60.00,SummerDesignDay
8,13.517617463812285
10,8080828.065803437
321,2605317.14423362
2,1, 7,21, 0, 4, 0.00,60.00,SummerDesignDay
555,21.121891330690436
595,20.496832047572828
635,20.54501899549528
675,19.732600541607405
715,19.70363675854699
2,1, 7,21, 0, 5, 0.00,10.00,SummerDesignDay
8,13.50185415824011
10,8080828.065803437
321,496194.7896758208
2,1, 7,21, 0, 5,10.00,20.00,SummerDesignDay
8,13.486076034032447
10,8080828.065803437
321,12000.0
2,1, 7,21, 0, 5,20.00,30.00,SummerDesignDay
8,13.470289340350983
10,8080828.065803437
321,12000.0
2,1, 7,21, 0, 5,30.00,40.00,SummerDesignDay
8,13.454493322631063
10,8080828.065803437
321,2628741.2280639547
2,1, 7,21, 0, 5,40.00,50.00,SummerDesignDay
8,13.438688835118548
10,8080828.065803437
321,473293.578608135
2,1, 7,21, 0, 5,50.00,60.00,SummerDesignDay
8,13.422888173889437
10,8080828.065803437
321,12000.0
2,1, 7,21, 0, 5, 0.00,60.00,SummerDesignDay
555,20.923989848876074
595,20.286494237374418
635,20.31173796786403
675,19.498605812617887
715,19.470712270978486
2,1, 7,21, 0, 6, 0.00,10.00,SummerDesignDay
8,13.438688835118548
10,8080828.065803437
321,12000.0
2,1, 7,21, 0, 6,10.00,20.00,SummerDesignDay
8,13.454493322631063
10,8080828.065803437
321,2647864.1975396794
2,1, 7,21, 0, 6,20.00,30.00,SummerDesignDay
8,13.470289340350983
10,8080828.065803437
321,454595.6451106202
2,1, 7,21, 0, 6,30.00,40.00,SummerDesignDay
8,13.486076034032447
10,8080828.065803437
321,12000.0
2,1, 7,21, 0, 6,40.00,50.00,SummerDesignDay
8,13.50185415824011
10,8080828.065803437
321,12000.0
2,1, 7,21, 0, 6,50.00,60.00,SummerDesignDay
8,13.517617463812285
10,8080828.065803437
321,2663512.4769978595
2,1, 7,21, 0, 6, 0.00,60.00,SummerDesignDay
555,20.787139214411178
595,20.156460576542157
635,20.183931440617177
675,19.37444649541526
715,19.347372810571458
2,1, 7,21, 0, 7, 0.00,10.00,SummerDesignDay
8,13.572736920571789
10,8080828.065803437
321,439293.90754212546
2,1, 7,21, 0, 7,10.00,20.00,SummerDesignDay
8,13.627748229152554
10,8080828.065803437
321,12000.0
2,1, 7,21, 0, 7,20.00,30.00,SummerDesignDay
8,13.682651961920304
10,8080828.065803437
321,12000.0
2,1, 7,21, 0, 7,30.00,40.00,SummerDesignDay
8,13.737448093244995
10,8080828.065803437
321,2676341.9905069826
2,1, 7,21, 0, 7,40.00,50.00,SummerDesignDay
8,13.792137011831216
10,8080828.065803437
321,426747.64038908286
2,1, 7,21, 0, 7,50.00,60.00,SummerDesignDay
8,13.846719282840333
10,8080828.065803437
321,12000.0
2,1, 7,21, 0, 7, 0.00,60.00,SummerDesignDay
555,20.760683043997493
595,20.188155729461763
635,20.27909874579765
675,19.484569907402919
715,19.457736503405966
2,1, 7,21, 0, 8, 0.00,10.00,SummerDesignDay
8,13.978831900527043
10,17997576.22079989
321,56052764.73105441
2,1, 7,21, 0, 8,10.00,20.00,SummerDesignDay
8,14.110321014287419
10,17910773.477479679
321,16953285.106863604
2,1, 7,21, 0, 8,20.00,30.00,SummerDesignDay
8,14.241191509616986
10,17871361.96663943
321,379133.22158370228
2,1, 7,21, 0, 8,30.00,40.00,SummerDesignDay
8,14.371447531304272
10,17871366.800129076
321,12000.0
2,1, 7,21, 0, 8,40.00,50.00,SummerDesignDay
8,14.501093766564925
10,17871371.709610929
321,3152196.4321140267
2,1, 7,21, 0, 8,50.00,60.00,SummerDesignDay
8,14.630134792273804
10,17871376.606845835
321,12000.0
2,1, 7,21, 0, 8, 0.00,60.00,SummerDesignDay
555,22.000480355755838
595,20.748908385925934
635,22.159871409075678
675,20.167690215761849
715,20.156287646574215
2,1, 7,21, 0, 9, 0.00,10.00,SummerDesignDay
8,14.773641492809972
10,52298370.55731223
321,40543005.5706289
2,1, 7,21, 0, 9,10.00,20.00,SummerDesignDay
8,14.91640948124148
10,53147054.21424328
321,13434830.820956435
2,1, 7,21, 0, 9,20.00,30.00,SummerDesignDay
8,15.05843890714102
10,54928270.48464126
321,2343722.586229789
2,1, 7,21, 0, 9,30.00,40.00,SummerDesignDay
8,15.199735893563798
10,56284421.97426507
321,2586112.8017282488
2,1, 7,21, 0, 9,40.00,50.00,SummerDesignDay
8,15.340306256439395
10,56741617.25613229
321,4248894.305324078
2,1, 7,21, 0, 9,50.00,60.00,SummerDesignDay
8,15.48015101768072
10,56982226.433505948
321,4257437.163637232
2,1, 7,21, 0, 9, 0.00,60.00,SummerDesignDay
555,22.921787920538209
595,22.288745904943167
635,23.77170574669138
675,22.524863150251009
715,22.49075436588304
2,1, 7,21, 0,10, 0.00,10.00,SummerDesignDay
8,15.60467292907716
10,72814804.78970394
321,5811899.26672717
2,1, 7,21, 0,10,10.00,20.00,SummerDesignDay
8,15.72862731650033
10,79520756.21359378
321,6008301.437681148
2,1, 7,21, 0,10,20.00,30.00,SummerDesignDay
8,15.852017409284228
10,79927403.65488358
321,6007673.863419879
2,1, 7,21, 0,10,30.00,40.00,SummerDesignDay
8,15.974848118364367
10,80857955.21316932
321,6011836.956966962
2,1, 7,21, 0,10,40.00,50.00,SummerDesignDay
8,16.097123145563505
10,81615243.86346507
321,5651725.294899851
2,1, 7,21, 0,10,50.00,60.00,SummerDesignDay
8,16.218846351168599
10,82356212.86979565
321,5422697.5894851549
2,1, 7,21, 0,10, 0.00,60.00,SummerDesignDay
555,23.99517235613963
595,24.48007648010388
635,23.999116584003159
675,23.96189059727639
715,23.947879395723889
2,1, 7,21, 0,11, 0.00,10.00,SummerDesignDay
8,16.325793027093189
10,91129538.19917342
321,7095264.094656533
2,1, 7,21, 0,11,10.00,20.00,SummerDesignDay
8,16.432322158488288
10,92002641.97542057
321,8280980.168174646
2,1, 7,21, 0,11,20.00,30.00,SummerDesignDay
8,16.538424180249178
10,92564377.02641663
321,9688616.431557907
2,1, 7,21, 0,11,30.00,40.00,SummerDesignDay
8,16.644108396469087
10,93114361.54892367
321,7214316.8856190829
2,1, 7,21, 0,11,40.00,50.00,SummerDesignDay
8,16.749376736593655
10,93637631.82581724
321,10761393.421764899
2,1, 7,21, 0,11,50.00,60.00,SummerDesignDay
8,16.854232613237156
10,94140441.63348621
321,7221984.213152131
2,1, 7,21, 0,11, 0.00,60.00,SummerDesignDay
555,23.999818359887404
595,26.115131970077234
635,23.998879402576099
675,23.998788338207239
715,23.99919461144684
2,1, 7,21, 0,12, 0.00,10.00,SummerDesignDay
8,16.92390823520069
10,94477656.48298517
321,7206576.710529232
2,1, 7,21, 0,12,10.00,20.00,SummerDesignDay
8,16.99340178950456
10,94800690.23958555
321,10761393.421764899
2,1, 7,21, 0,12,20.00,30.00,SummerDesignDay
8,17.06272006743463
10,95098977.1388772
321,7216829.601818866
2,1, 7,21, 0,12,30.00,40.00,SummerDesignDay
8,17.131853229172639
10,95385236.83601094
321,9816635.619243069
2,1, 7,21, 0,12,40.00,50.00,SummerDesignDay
8,17.200807172194087
10,95663111.23758754
321,8162210.257979643
2,1, 7,21, 0,12,50.00,60.00,SummerDesignDay
8,17.269582116758607
10,95925785.39924161
321,7210404.9792804
2,1, 7,21, 0,12, 0.00,60.00,SummerDesignDay
555,23.99992958698083
595,27.205228184858954
635,23.998859476611235
675,23.998684995940115
715,23.99922064055323
2,1, 7,21, 0,13, 0.00,10.00,SummerDesignDay
8,17.32447360221357
10,95897234.33860293
321,10761393.421764899
2,1, 7,21, 0,13,10.00,20.00,SummerDesignDay
8,17.379251291230806
10,96186847.33566213
321,10761393.421764899
2,1, 7,21, 0,13,20.00,30.00,SummerDesignDay
8,17.433921312061729
10,96484493.75090806
321,10761393.421764899
2,1, 7,21, 0,13,30.00,40.00,SummerDesignDay
8,17.488473222557489
10,96772033.87633069
321,7716320.000781661
2,1, 7,21, 0,13,40.00,50.00,SummerDesignDay
8,17.542913447755134
10,97027405.49409643
321,10761393.421764899
2,1, 7,21, 0,13,50.00,60.00,SummerDesignDay
8,17.59724609886134
10,97272505.88148302
321,10761393.421764899
2,1, 7,21, 0,13, 0.00,60.00,SummerDesignDay
555,24.001580706830614
595,27.894578940359847
635,23.99892081785626
675,23.998512947624247
715,23.9991534197562
2,1, 7,21, 0,14, 0.00,10.00,SummerDesignDay
8,17.6311450462694
10,97430726.69889139
321,10761393.421764899
2,1, 7,21, 0,14,10.00,20.00,SummerDesignDay
8,17.665000449016245
10,97617011.13512911
321,10761393.421764899
2,1, 7,21, 0,14,20.00,30.00,SummerDesignDay
8,17.698812743128934
10,97759522.06284218
321,10761393.421764899
2,1, 7,21, 0,14,30.00,40.00,SummerDesignDay
8,17.732582050940107
10,97898202.80262406
321,10761393.421764899
2,1, 7,21, 0,14,40.00,50.00,SummerDesignDay
8,17.766307345121004
10,98036067.69780028
321,10761393.421764899
2,1, 7,21, 0,14,50.00,60.00,SummerDesignDay
8,17.79999023167558
10,98167927.98143743
321,10761393.421764899
2,1, 7,21, 0,14, 0.00,60.00,SummerDesignDay
555,24.04724688925381
595,28.366103385083574
635,23.998977028288594
675,23.998170788334308
715,23.999020032341979
2,1, 7,21, 0,15, 0.00,10.00,SummerDesignDay
8,17.79999023167558
10,97626841.52473428
321,10761393.421764899
2,1, 7,21, 0,15,10.00,20.00,SummerDesignDay
8,17.79999023167558
10,97579199.59614718
321,10761393.421764899
2,1, 7,21, 0,15,20.00,30.00,SummerDesignDay
8,17.79999023167558
10,97585500.61264555
321,10761393.421764899
2,1, 7,21, 0,15,30.00,40.00,SummerDesignDay
8,17.79999023167558
10,97589917.38424073
321,10761393.421764899
2,1, 7,21, 0,15,40.00,50.00,SummerDesignDay
8,17.79999023167558
10,97595180.79926948
321,10761393.421764899
2,1, 7,21, 0,15,50.00,60.00,SummerDesignDay
8,17.79999023167558
10,97600468.32883927
321,10761393.421764899
2,1, 7,21, 0,15, 0.00,60.00,SummerDesignDay
555,24.13751043198377
595,28.65506699462556
635,24.09387887889979
675,23.99829003558969
715,23.999190585398009
2,1, 7,21, 0,16, 0.00,10.00,SummerDesignDay
8,17.759562446305357
10,98138287.58808841
321,10761393.421764899
2,1, 7,21, 0,16,10.00,20.00,SummerDesignDay
8,17.71907809634183
10,98019080.87463841
321,10761393.421764899
2,1, 7,21, 0,16,20.00,30.00,SummerDesignDay
8,17.67853788661001
10,97886329.76141449
321,10761393.421764899
2,1, 7,21, 0,16,30.00,40.00,SummerDesignDay
8,17.63791796367351
10,97751079.25296974
321,7722326.912221951
2,1, 7,21, 0,16,40.00,50.00,SummerDesignDay
8,17.59724609886134
10,97605303.84223832
321,10761393.421764899
2,1, 7,21, 0,16,50.00,60.00,SummerDesignDay
8,17.55650676726033
10,97460142.37280095
321,10761393.421764899
2,1, 7,21, 0,16, 0.00,60.00,SummerDesignDay
555,24.169817365537925
595,28.72508266762041
635,24.14627641737216
675,23.998215007842764
715,23.99917664512988
2,1, 7,21, 0,17, 0.00,10.00,SummerDesignDay
8,17.50209486331892
10,97071326.11533712
321,7599309.475791895
2,1, 7,21, 0,17,10.00,20.00,SummerDesignDay
8,17.447570789624618
10,96864470.09956245
321,10761393.421764899
2,1, 7,21, 0,17,20.00,30.00,SummerDesignDay
8,17.392929544208135
10,96631769.80016519
321,10761393.421764899
2,1, 7,21, 0,17,30.00,40.00,SummerDesignDay
8,17.33818013976614
10,96431234.96676292
321,7592164.16012938
2,1, 7,21, 0,17,40.00,50.00,SummerDesignDay
8,17.283317298559309
10,96169922.68827866
321,10761393.421764899
2,1, 7,21, 0,17,50.00,60.00,SummerDesignDay
8,17.22833552437677
10,95939762.04624029
321,10761393.421764899
2,1, 7,21, 0,17, 0.00,60.00,SummerDesignDay
555,24.135261760150916
595,28.574531359906947
635,24.04145228012276
675,23.998165845065349
715,23.999077031264475
2,1, 7,21, 0,18, 0.00,10.00,SummerDesignDay
8,17.159453019160176
10,91991599.52196867
321,5172516.583841278
2,1, 7,21, 0,18,10.00,20.00,SummerDesignDay
8,17.090391773337136
10,91510917.83873837
321,4663784.707751938
2,1, 7,21, 0,18,20.00,30.00,SummerDesignDay
8,17.021151077964786
10,91080342.70161337
321,4661847.285955628
2,1, 7,21, 0,18,30.00,40.00,SummerDesignDay
8,16.951729380464653
10,90863700.26996918
321,4658592.428829492
2,1, 7,21, 0,18,40.00,50.00,SummerDesignDay
8,16.882126503829249
10,90557404.09755922
321,4655260.671668758
2,1, 7,21, 0,18,50.00,60.00,SummerDesignDay
8,16.812341807494034
10,90255567.98147774
321,4651864.57422472
2,1, 7,21, 0,18, 0.00,60.00,SummerDesignDay
555,24.01228778258584
595,28.14601382903069
635,23.998583465519745
675,23.99816420710276
715,23.998961877820507
2,1, 7,21, 0,19, 0.00,10.00,SummerDesignDay
8,16.707321072823203
10,50681949.60213079
321,2779195.8768524026
2,1, 7,21, 0,19,10.00,20.00,SummerDesignDay
8,16.601881826644556
10,49530067.44603654
321,3545463.0318886858
2,1, 7,21, 0,19,20.00,30.00,SummerDesignDay
8,16.496030555252849
10,48906568.374325428
321,12000.0
2,1, 7,21, 0,19,30.00,40.00,SummerDesignDay
8,16.389760181474104
10,48263682.90109754
321,3528039.610394617
2,1, 7,21, 0,19,40.00,50.00,SummerDesignDay
8,16.283067654262039
10,47657101.74059804
321,2094020.257218283
2,1, 7,21, 0,19,50.00,60.00,SummerDesignDay
8,16.17595057957811
10,47066934.155286069
321,1462413.6930209897
2,1, 7,21, 0,19, 0.00,60.00,SummerDesignDay
555,23.999923561764857
595,27.128334680192706
635,23.99942317683468
675,23.999508494038314
715,23.999680009876497
2,1, 7,21, 0,20, 0.00,10.00,SummerDesignDay
8,16.097123145563505
10,21182030.243888037
321,3366778.3817454597
2,1, 7,21, 0,20,10.00,20.00,SummerDesignDay
8,16.018070242471564
10,20802233.24478037
321,12000.0
2,1, 7,21, 0,20,20.00,30.00,SummerDesignDay
8,15.938779752340516
10,20566340.22919317
321,2980724.756858622
2,1, 7,21, 0,20,30.00,40.00,SummerDesignDay
8,15.85926152575189
10,20329130.127164969
321,380694.0770724521
2,1, 7,21, 0,20,40.00,50.00,SummerDesignDay
8,15.779503718563929
10,20108987.94677958
321,1932039.8719619853
2,1, 7,21, 0,20,50.00,60.00,SummerDesignDay
8,15.699515709672767
10,19894979.02877313
321,1413736.1029100249
2,1, 7,21, 0,20, 0.00,60.00,SummerDesignDay
555,23.99998838433268
595,25.742745363966085
635,23.999852664854094
675,23.9254290201582
715,23.94226912893986
2,1, 7,21, 0,21, 0.00,10.00,SummerDesignDay
8,15.63389147320404
10,19717647.856575349
321,925992.5997836068
2,1, 7,21, 0,21,10.00,20.00,SummerDesignDay
8,15.56810827419793
10,19544613.25074842
321,2404331.1238794496
2,1, 7,21, 0,21,20.00,30.00,SummerDesignDay
8,15.502170882753524
10,19380684.57406573
321,12000.0
2,1, 7,21, 0,21,30.00,40.00,SummerDesignDay
8,15.436068032613852
10,19213959.204145936
321,3309488.848171602
2,1, 7,21, 0,21,40.00,50.00,SummerDesignDay
8,15.369804371206009
10,19052592.647259229
321,12000.0
2,1, 7,21, 0,21,50.00,60.00,SummerDesignDay
8,15.303384603594449
10,18890677.40458558
321,3315517.3656455997
2,1, 7,21, 0,21, 0.00,60.00,SummerDesignDay
555,24.000015645454878
595,24.653291564298028
635,23.999930630295827
675,23.313535536415896
715,23.323387160760505
2,1, 7,21, 0,22, 0.00,10.00,SummerDesignDay
8,15.236797685071274
10,9738314.27077585
321,12000.0
2,1, 7,21, 0,22,10.00,20.00,SummerDesignDay
8,15.170047891787942
10,9738314.27077585
321,3321608.614966575
2,1, 7,21, 0,22,20.00,30.00,SummerDesignDay
8,15.103134826860483
10,9738314.27077585
321,12000.0
2,1, 7,21, 0,22,30.00,40.00,SummerDesignDay
8,15.036063385178485
10,9738314.27077585
321,3327727.3659850719
2,1, 7,21, 0,22,40.00,50.00,SummerDesignDay
8,14.968821767219835
10,9738314.27077585
321,12000.0
2,1, 7,21, 0,22,50.00,60.00,SummerDesignDay
8,14.90141525878635
10,9738314.27077585
321,3333864.3832453165
2,1, 7,21, 0,22, 0.00,60.00,SummerDesignDay
555,23.70964509361706
595,23.645118574557775
635,23.698589836172187
675,22.59578479600056
715,22.584291555297896
2,1, 7,21, 0,23, 0.00,10.00,SummerDesignDay
8,14.848873673278373
10,9738314.27077585
321,12000.0
2,1, 7,21, 0,23,10.00,20.00,SummerDesignDay
8,14.796237168136719
10,9738314.27077585
321,12000.0
2,1, 7,21, 0,23,20.00,30.00,SummerDesignDay
8,14.743494321455645
10,9738314.27077585
321,991261.8288159991
2,1, 7,21, 0,23,30.00,40.00,SummerDesignDay
8,14.690649975253665
10,9738314.27077585
321,2073229.9829795946
2,1, 7,21, 0,23,40.00,50.00,SummerDesignDay
8,14.637704281233117
10,9738314.27077585
321,12000.0
2,1, 7,21, 0,23,50.00,60.00,SummerDesignDay
8,14.584656914839757
10,9738314.27077585
321,12000.0
2,1, 7,21, 0,23, 0.00,60.00,SummerDesignDay
555,23.143304805708948
595,22.73788296609848
635,23.04591965207008
675,21.937492626860178
715,21.911371377206014
2,1, 7,21, 0,24, 0.00,10.00,SummerDesignDay
8,14.531507212058875
10,8080828.065803437
321,1423470.658750415
2,1, 7,21, 0,24,10.00,20.00,SummerDesignDay
8,14.47825496413355
10,8080828.065803437
321,1650561.8978760993
2,1, 7,21, 0,24,20.00,30.00,SummerDesignDay
8,14.4249000133173
10,8080828.065803437
321,12000.0
2,1, 7,21, 0,24,30.00,40.00,SummerDesignDay
8,14.371447531304272
10,8080828.065803437
321,12000.0
2,1, 7,21, 0,24,40.00,50.00,SummerDesignDay
8,14.31788619902223
10,8080828.065803437
321,1727398.9933786689
2,1, 7,21, 0,24,50.00,60.00,SummerDesignDay
8,14.264220970176066
10,8080828.065803437
321,1353663.9405529877
2,1, 7,21, 0,24, 0.00,60.00,SummerDesignDay
555,22.57498997627494
595,22.069632226641887
635,22.318654939302829
675,21.358659671749068
715,21.32484606287476
3,1, 7,21, 0,SummerDesignDay
556,47.86663382503647,44.124338772143939,12,30,55.03872188879137, 7,20
596,45.60503430482513,34.46525574987548,16,20,57.183602912522719, 6,60
636,49.76380813867316,44.69442852314825,10,50,57.22582519591709, 6,50
676,52.79909763321941,46.377340293046497,20,30,60.25532342236816, 6,40
716,51.639046860806107,45.65099449625414,20,30,60.05796316068837, 6,40
4,1, 7
7,22.2505,16.5,21, 5,60,28.9,21,14,60
1,FORT MCMURRAY AP ANN HTG 99.6% CONDNS DB,  56.65,-111.22,  -7.00, 369.10
2,1, 1,21, 0, 1, 0.00,10.00,WinterDesignDay
8,-36.2
10,8198548.42489938
321,346629193.221719
2,1, 1,21, 0, 1,10.00,20.00,WinterDesignDay
8,-36.2
10,8198554.710151688
321,346789397.99821737
2,1, 1,21, 0, 1,20.00,30.00,WinterDesignDay
8,-36.2
10,8198560.996294142
321,346927119.77375057
2,1, 1,21, 0, 1,30.00,40.00,WinterDesignDay
8,-36.2
10,8198567.283326953
321,350127967.2455172
2,1, 1,21, 0, 1,40.00,50.00,WinterDesignDay
8,-36.2
10,8198573.571250335
321,347138501.1551882
2,1, 1,21, 0, 1,50.00,60.00,WinterDesignDay
8,-36.2
10,8198579.910630987
321,347214976.72761169
2,1, 1,21, 0, 1, 0.00,60.00,WinterDesignDay
555,17.999997422190576
595,8.002743146104324
635,17.999987602513128
675,17.99998979161833
715,17.999999623182807
2,1, 1,21, 0, 2, 0.00,10.00,WinterDesignDay
8,-36.2
10,8198586.390957735
321,349505114.596507
2,1, 1,21, 0, 2,10.00,20.00,WinterDesignDay
8,-36.2
10,8198592.872233649
321,348220765.4702458
2,1, 1,21, 0, 2,20.00,30.00,WinterDesignDay
8,-36.2
10,8198599.354459541
321,347388854.25284609
2,1, 1,21, 0, 2,30.00,40.00,WinterDesignDay
8,-36.2
10,8198605.8376356
321,347429508.1415543
2,1, 1,21, 0, 2,40.00,50.00,WinterDesignDay
8,-36.2
10,8198612.321762062
321,350555875.60580816
2,1, 1,21, 0, 2,50.00,60.00,WinterDesignDay
8,-36.2
10,8198618.806839161
321,347496552.6883112
2,1, 1,21, 0, 2, 0.00,60.00,WinterDesignDay
555,17.999998273638107
595,7.869069797893078
635,17.99999157847532
675,17.999990832201339
715,17.999999882389685
2,1, 1,21, 0, 3, 0.00,10.00,WinterDesignDay
8,-36.2
10,8198625.292867134
321,347520037.83378216
2,1, 1,21, 0, 3,10.00,20.00,WinterDesignDay
8,-36.2
10,8198631.779846217
321,349164515.59856656
2,1, 1,21, 0, 3,20.00,30.00,WinterDesignDay
8,-36.2
10,8198638.267776643
321,349030815.8016499
2,1, 1,21, 0, 3,30.00,40.00,WinterDesignDay
8,-36.2
10,8198644.75665865
321,347580208.9858055
2,1, 1,21, 0, 3,40.00,50.00,WinterDesignDay
8,-36.2
10,8198651.246492472
321,347597075.4336462
2,1, 1,21, 0, 3,50.00,60.00,WinterDesignDay
8,-36.2
10,8198657.737278345
321,350706741.8822919
2,1, 1,21, 0, 3, 0.00,60.00,WinterDesignDay
555,17.999998706604456
595,7.806727418120526
635,17.999993065160266
675,17.99999117684074
715,17.999999961507876
2,1, 1,21, 0, 4, 0.00,10.00,WinterDesignDay
8,-36.2
10,8198664.229016505
321,347622482.91461387
2,1, 1,21, 0, 4,10.00,20.00,WinterDesignDay
8,-36.2
10,8198670.7217071889
321,347632750.45976409
2,1, 1,21, 0, 4,20.00,30.00,WinterDesignDay
8,-36.2
10,8198677.215350631
321,348728043.0359621
2,1, 1,21, 0, 4,30.00,40.00,WinterDesignDay
8,-36.2
10,8198683.709947067
321,349642036.56403848
2,1, 1,21, 0, 4,40.00,50.00,WinterDesignDay
8,-36.2
10,8198690.205496736
321,347656619.02463629
2,1, 1,21, 0, 4,50.00,60.00,WinterDesignDay
8,-36.2
10,8198696.70199987
321,347664295.9055086
2,1, 1,21, 0, 4, 0.00,60.00,WinterDesignDay
555,17.999998978805306
595,7.776743857910206
635,17.999993641732126
675,17.999991298548964
715,17.99999998714628
2,1, 1,21, 0, 5, 0.00,10.00,WinterDesignDay
8,-36.2
10,8198703.1994567089
321,350769694.2465926
2,1, 1,21, 0, 5,10.00,20.00,WinterDesignDay
8,-36.2
10,8198709.697867487
321,347675694.78053876
2,1, 1,21, 0, 5,20.00,30.00,WinterDesignDay
8,-36.2
10,8198716.197232441
321,347677672.02593716
2,1, 1,21, 0, 5,30.00,40.00,WinterDesignDay
8,-36.2
10,8198722.697551808
321,348298187.82194676
2,1, 1,21, 0, 5,40.00,50.00,WinterDesignDay
8,-36.2
10,8198729.198825825
321,350137788.8685809
2,1, 1,21, 0, 5,50.00,60.00,WinterDesignDay
8,-36.2
10,8198735.701054728
321,347688129.97749707
2,1, 1,21, 0, 5, 0.00,60.00,WinterDesignDay
555,17.99999916577912
595,7.762372387038956
635,17.999993868647829
675,17.999991343745127
715,17.99999999566629
2,1, 1,21, 0, 6, 0.00,10.00,WinterDesignDay
8,-36.2
10,8198742.204238753
321,347692038.9899671
2,1, 1,21, 0, 6,10.00,20.00,WinterDesignDay
8,-36.2
10,8198748.708378138
321,350797109.24169698
2,1, 1,21, 0, 6,20.00,30.00,WinterDesignDay
8,-36.2
10,8198755.213473119
321,347699090.28214207
2,1, 1,21, 0, 6,30.00,40.00,WinterDesignDay
8,-36.2
10,8198761.719523934
321,347700013.25985339
2,1, 1,21, 0, 6,40.00,50.00,WinterDesignDay
8,-36.2
10,8198768.22653082
321,347903583.98839977
2,1, 1,21, 0, 6,50.00,60.00,WinterDesignDay
8,-36.2
10,8198774.734494014
321,350566653.29855647
2,1, 1,21, 0, 6, 0.00,60.00,WinterDesignDay
555,17.99999930058148
595,7.7552290996779089
635,17.99999395979245
675,17.99999136190789
715,17.99999999853262
2,1, 1,21, 0, 7, 0.00,10.00,WinterDesignDay
8,-36.2
10,8233502.337507911
321,401445665.32533499
2,1, 1,21, 0, 7,10.00,20.00,WinterDesignDay
8,-36.2
10,8255562.107899142
321,380710494.31095829
2,1, 1,21, 0, 7,20.00,30.00,WinterDesignDay
8,-36.2
10,8197953.326949337
321,365403638.37251868
2,1, 1,21, 0, 7,30.00,40.00,WinterDesignDay
8,-36.2
10,8197959.130954126
321,360385516.9736552
2,1, 1,21, 0, 7,40.00,50.00,WinterDesignDay
8,-36.2
10,8197965.149412294
321,360633256.88898876
2,1, 1,21, 0, 7,50.00,60.00,WinterDesignDay
8,-36.2
10,8197971.165156724
321,359150292.66554328
2,1, 1,21, 0, 7, 0.00,60.00,WinterDesignDay
555,19.800615971163585
595,7.769203446242856
635,19.948791517641238
675,17.99999326664589
715,17.999999999591198
2,1, 1,21, 0, 8, 0.00,10.00,WinterDesignDay
8,-36.2
10,17930481.58564174
321,468884212.859589
2,1, 1,21, 0, 8,10.00,20.00,WinterDesignDay
8,-36.2
10,17930481.58564174
321,417982313.73314276
2,1, 1,21, 0, 8,20.00,30.00,WinterDesignDay
8,-36.2
10,17930481.58564174
321,395237607.19769689
2,1, 1,21, 0, 8,30.00,40.00,WinterDesignDay
8,-36.2
10,17872872.816177198
321,383571461.12814047
2,1, 1,21, 0, 8,40.00,50.00,WinterDesignDay
8,-36.2
10,17872878.617371505
321,376315216.38634666
2,1, 1,21, 0, 8,50.00,60.00,WinterDesignDay
8,-36.2
10,17872884.636263543
321,379010441.87423899
2,1, 1,21, 0, 8, 0.00,60.00,WinterDesignDay
555,21.74226060784844
595,8.123582119233375
635,21.944106354115577
675,19.93902189974962
715,19.933542047514693
2,1, 1,21, 0, 9, 0.00,10.00,WinterDesignDay
8,-36.2
10,52301964.84336488
321,404839225.70180478
2,1, 1,21, 0, 9,10.00,20.00,WinterDesignDay
8,-36.2
10,52252589.72676236
321,372195572.6140585
2,1, 1,21, 0, 9,20.00,30.00,WinterDesignDay
8,-36.2
10,52252598.36769769
321,355806257.0883684
2,1, 1,21, 0, 9,30.00,40.00,WinterDesignDay
8,-36.2
10,52252603.7066028
321,362187384.23263618
2,1, 1,21, 0, 9,40.00,50.00,WinterDesignDay
8,-36.2
10,52252610.356164168
321,357748438.12581506
2,1, 1,21, 0, 9,50.00,60.00,WinterDesignDay
8,-36.2
10,52252616.45965647
321,356992455.41247609
2,1, 1,21, 0, 9, 0.00,60.00,WinterDesignDay
555,21.999997867463774
595,9.233624083411323
635,21.99981463273888
675,21.947209371280527
715,21.94002103432503
2,1, 1,21, 0,10, 0.00,10.00,WinterDesignDay
8,-36.2
10,66270008.18556777
321,343134630.3295532
2,1, 1,21, 0,10,10.00,20.00,WinterDesignDay
8,-36.2
10,66270015.76762388
321,340715857.5839853
2,1, 1,21, 0,10,20.00,30.00,WinterDesignDay
8,-36.2
10,66270023.76688101
321,339693364.18094578
2,1, 1,21, 0,10,30.00,40.00,WinterDesignDay
8,-36.2
10,66270031.886456888
321,337937420.06566259
2,1, 1,21, 0,10,40.00,50.00,WinterDesignDay
8,-36.2
10,66270039.53081253
321,337389363.92277148
2,1, 1,21, 0,10,50.00,60.00,WinterDesignDay
8,-36.2
10,66270046.79278827
321,336928461.23747268
2,1, 1,21, 0,10, 0.00,60.00,WinterDesignDay
555,21.99999100331445
595,10.480920156285063
635,22.00554110639813
675,21.999999263592529
715,21.999999480539999
2,1, 1,21, 0,11, 0.00,10.00,WinterDesignDay
8,-36.2
10,72480006.80115883
321,333839669.88348069
2,1, 1,21, 0,11,10.00,20.00,WinterDesignDay
8,-36.2
10,72480014.60355091
321,330573163.8937078
2,1, 1,21, 0,11,20.00,30.00,WinterDesignDay
8,-36.2
10,72480021.703325
321,331292950.71241608
2,1, 1,21, 0,11,30.00,40.00,WinterDesignDay
8,-36.2
10,72480028.65573786
321,331953967.05887368
2,1, 1,21, 0,11,40.00,50.00,WinterDesignDay
8,-36.2
10,72480035.07158652
321,331672050.33915546
2,1, 1,21, 0,11,50.00,60.00,WinterDesignDay
8,-36.2
10,72480041.0423046
321,331434681.18094238
2,1, 1,21, 0,11, 0.00,60.00,WinterDesignDay
555,21.999983969214044
595,11.14708418798734
635,22.107794356168854
675,21.999999947668028
715,22.000000041294667
2,1, 1,21, 0,12, 0.00,10.00,WinterDesignDay
8,-36.2
10,72480046.51830863
321,328212696.20942798
2,1, 1,21, 0,12,10.00,20.00,WinterDesignDay
8,-36.2
10,72480051.71733856
321,331101242.0728427
2,1, 1,21, 0,12,20.00,30.00,WinterDesignDay
8,-36.2
10,72480056.58072512
321,330974591.48733779
2,1, 1,21, 0,12,30.00,40.00,WinterDesignDay
8,-36.2
10,72480051.6066006
321,330873932.2166339
2,1, 1,21, 0,12,40.00,50.00,WinterDesignDay
8,-36.2
10,72480042.68410914
321,327771464.4123998