Program Version,EnergyPlus, Version 8.9.0-eba93e8e1b, YMD=2019.04.04 17:58
1,5,Environment Title[],Latitude[deg],Longitude[deg],Time Zone[],Elevation[m]
2,8,Day of Simulation[],Month[],Day of Month[],DST Indicator[1=yes 0=no],Hour[],StartMinute[],EndMinute[],DayType
3,5,Cumulative Day of Simulation[],Month[],Day of Month[],DST Indicator[1=yes 0=no],DayType  ! When Daily Report Variables Requested
4,2,Cumulative Days of Simulation[],Month[]  ! When Monthly Report Variables Requested
5,1,Cumulative Days of Simulation[] ! When Run Period Report Variables Requested
6,1,Calendar Year of Simulation[] ! When Annual Report Variables Requested
7,9,Environment,Site Outdoor Air Drybulb Temperature [C] !Monthly [Value,Min,Day,Hour,Minute,Max,Day,Hour,Minute]
8,1,Environment,Site Outdoor Air Wetbulb Temperature [C] !TimeStep
344,1,MUSEUM - RESTORATION-SPACE FUNCTION ZN,Zone Air Temperature [C] !Hourly
345,7,MUSEUM - RESTORATION-SPACE FUNCTION ZN,Zone Air Relative Humidity [%] !Daily [Value,Min,Hour,Minute,Max,Hour,Minute]
384,1,OFFICE - ENCLOSED - OCCSENS-SPACE FUNCTION ZN,Zone Air Temperature [C] !Hourly
385,7,OFFICE - ENCLOSED - OCCSENS-SPACE FUNCTION ZN,Zone Air Relative Humidity [%] !Daily [Value,Min,Hour,Minute,Max,Hour,Minute]
424,1,OFFICE - ENCLOSED-SPACE FUNCTION ZN,Zone Air Temperature [C] !Hourly
425,7,OFFICE - ENCLOSED-SPACE FUNCTION ZN,Zone Air Relative Humidity [%] !Daily [Value,Min,Hour,Minute,Max,Hour,Minute]
464,1,OFFICE - OPEN PLAN-SPACE FUNCTION ZN,Zone Air Temperature [C] !Hourly
465,7,OFFICE - OPEN PLAN-SPACE FUNCTION ZN,Zone Air Relative Humidity [%] !Daily [Value,Min,Hour,Minute,Max,Hour,Minute]
504,1,PARKING GARAGE SPACE-SPACE FUNCTION ZN,Zone Air Temperature [C] !Hourly
505,7,PARKING GARAGE SPACE-SPACE FUNCTION ZN,Zone Air Relative Humidity [%] !Daily [Value,Min,Hour,Minute,Max,Hour,Minute]
10,1,Electricity:Facility [J] !TimeStep
655,1,DistrictCooling:Facility [J] !TimeStep
618,1,DistrictHeating:Facility [J] !TimeStep
End of Data Dictionary
1,FORT MCMURRAY AP ANN CLG .4% CONDNS DB=>MWB,  56.65,-111.22,  -7.00, 369.10
2,1, 7,21, 0, 1, 0.00,10.00,SummerDesignDay
8,14.218136923962174
10,11302968.43354104
618,9269793.137394503
655,0.0
2,1, 7,21, 0, 1,10.00,20.00,SummerDesignDay
8,14.171982153293495
10,11302968.43354104
618,9724979.446114956
655,0.0
2,1, 7,21, 0, 1,20.00,30.00,SummerDesignDay
8,14.125744780286427
10,11302968.43354104
618,10178726.47034878
655,0.0
2,1, 7,21, 0, 1,30.00,40.00,SummerDesignDay
8,14.079436086331978
10,11302968.43354104
618,10630921.777777592
655,0.0
2,1, 7,21, 0, 1,40.00,50.00,SummerDesignDay
8,14.033050387896898
10,11302968.43354104
618,11081611.751839145
655,0.0
2,1, 7,21, 0, 1,50.00,60.00,SummerDesignDay
8,13.986581233564835
10,11302968.43354104
618,11530860.179737606
655,0.0
2,1, 7,21, 0, 1, 0.00,60.00,SummerDesignDay
344,21.505118333418865
384,22.59616765185682
424,22.56785368697116
464,22.543253804840519
504,22.000000000000015
2,1, 7,21, 0, 2, 0.00,10.00,SummerDesignDay
8,13.95555882260429
10,11302968.43354104
618,0.0
655,0.0
2,1, 7,21, 0, 2,10.00,20.00,SummerDesignDay
8,13.924507755336454
10,11302968.43354104
618,0.0
655,0.0
2,1, 7,21, 0, 2,20.00,30.00,SummerDesignDay
8,13.893416042989206
10,11302968.43354104
618,0.0
655,0.0
2,1, 7,21, 0, 2,30.00,40.00,SummerDesignDay
8,13.862289589689029
10,11302968.43354104
618,0.0
655,0.0
2,1, 7,21, 0, 2,40.00,50.00,SummerDesignDay
8,13.831134407608739
10,11302968.43354104
618,0.0
655,0.0
2,1, 7,21, 0, 2,50.00,60.00,SummerDesignDay
8,13.799938415548118
10,11302968.43354104
618,0.0
655,0.0
2,1, 7,21, 0, 2, 0.00,60.00,SummerDesignDay
344,21.10465041759601
384,22.247749897407109
424,22.22832189833163
464,22.205557849810515
504,20.517713889474775
2,1, 7,21, 0, 3, 0.00,10.00,SummerDesignDay
8,13.776521671948676
10,11302968.43354104
618,0.0
655,0.0
2,1, 7,21, 0, 3,10.00,20.00,SummerDesignDay
8,13.753085235778466
10,11302968.43354104
618,0.0
655,0.0
2,1, 7,21, 0, 3,20.00,30.00,SummerDesignDay
8,13.729636002354969
10,11302968.43354104
618,0.0
655,0.0
2,1, 7,21, 0, 3,30.00,40.00,SummerDesignDay
8,13.706147375533054
10,11302968.43354104
618,0.0
655,0.0
2,1, 7,21, 0, 3,40.00,50.00,SummerDesignDay
8,13.682651961920304
10,11302968.43354104
618,0.0
655,0.0
2,1, 7,21, 0, 3,50.00,60.00,SummerDesignDay
8,13.659136670643687
10,11302968.43354104
618,0.0
655,0.0
2,1, 7,21, 0, 3, 0.00,60.00,SummerDesignDay
344,20.69619833932221
384,21.903985559922007
424,21.868395434790274
464,21.846710723250799
504,19.28237215022555
2,1, 7,21, 0, 4, 0.00,10.00,SummerDesignDay
8,13.63560137410855
10,11302968.43354104
618,0.0
655,0.0
2,1, 7,21, 0, 4,10.00,20.00,SummerDesignDay
8,13.612040802606578
10,11302968.43354104
618,0.0
655,0.0
2,1, 7,21, 0, 4,20.00,30.00,SummerDesignDay
8,13.58846620506876
10,11302968.43354104
618,0.0
655,0.0
2,1, 7,21, 0, 4,30.00,40.00,SummerDesignDay
8,13.56487178447336
10,11302968.43354104
618,0.0
655,0.0
2,1, 7,21, 0, 4,40.00,50.00,SummerDesignDay
8,13.541257354069103
10,11302968.43354104
618,0.0
655,0.0
2,1, 7,21, 0, 4,50.00,60.00,SummerDesignDay
8,13.517617463812285
10,11302968.43354104
618,0.0
655,0.0
2,1, 7,21, 0, 4, 0.00,60.00,SummerDesignDay
344,20.383344967580176
384,21.651365561892179
424,21.585641922045985
464,21.564377856620838
504,18.859333629547434
2,1, 7,21, 0, 5, 0.00,10.00,SummerDesignDay
8,13.50185415824011
10,11302968.43354104
618,0.0
655,0.0
2,1, 7,21, 0, 5,10.00,20.00,SummerDesignDay
8,13.486076034032447
10,11302968.43354104
618,0.0
655,0.0
2,1, 7,21, 0, 5,20.00,30.00,SummerDesignDay
8,13.470289340350983
10,11302968.43354104
618,0.0
655,0.0
2,1, 7,21, 0, 5,30.00,40.00,SummerDesignDay
8,13.454493322631063
10,11302968.43354104
618,0.0
655,0.0
2,1, 7,21, 0, 5,40.00,50.00,SummerDesignDay
8,13.438688835118548
10,11302968.43354104
618,0.0
655,0.0
2,1, 7,21, 0, 5,50.00,60.00,SummerDesignDay
8,13.422888173889437
10,11302968.43354104
618,0.0
655,0.0
2,1, 7,21, 0, 5, 0.00,60.00,SummerDesignDay
344,20.133029442020065
384,21.448833636140298
424,21.36322094066674
464,21.34215599397571
504,18.567503941857475
2,1, 7,21, 0, 6, 0.00,10.00,SummerDesignDay
8,13.438688835118548
10,11302968.43354104
618,0.0
655,0.0
2,1, 7,21, 0, 6,10.00,20.00,SummerDesignDay
8,13.454493322631063
10,11302968.43354104
618,0.0
655,0.0
2,1, 7,21, 0, 6,20.00,30.00,SummerDesignDay
8,13.470289340350983
10,11302968.43354104
618,0.0
655,0.0
2,1, 7,21, 0, 6,30.00,40.00,SummerDesignDay
8,13.486076034032447
10,11302968.43354104
618,0.0
655,0.0
2,1, 7,21, 0, 6,40.00,50.00,SummerDesignDay
8,13.50185415824011
10,11302968.43354104
618,0.0
655,0.0
2,1, 7,21, 0, 6,50.00,60.00,SummerDesignDay
8,13.517617463812285
10,11302968.43354104
618,0.0
655,0.0
2,1, 7,21, 0, 6, 0.00,60.00,SummerDesignDay
344,19.988755581627339
384,21.31654839603438
424,21.220027439902809
464,21.199068187924003
504,18.4572472295604
2,1, 7,21, 0, 7, 0.00,10.00,SummerDesignDay
8,13.572736920571789
10,11302968.43354104
618,447971.2744328114
655,0.0
2,1, 7,21, 0, 7,10.00,20.00,SummerDesignDay
8,13.627748229152554
10,11302968.43354104
618,0.0
655,0.0
2,1, 7,21, 0, 7,20.00,30.00,SummerDesignDay
8,13.682651961920304
10,11302968.43354104
618,0.0
655,0.0
2,1, 7,21, 0, 7,30.00,40.00,SummerDesignDay
8,13.737448093244995
10,11302968.43354104
618,0.0
655,0.0
2,1, 7,21, 0, 7,40.00,50.00,SummerDesignDay
8,13.792137011831216
10,11302968.43354104
618,0.0
655,0.0
2,1, 7,21, 0, 7,50.00,60.00,SummerDesignDay
8,13.846719282840333
10,11302968.43354104
618,0.0
655,0.0
2,1, 7,21, 0, 7, 0.00,60.00,SummerDesignDay
344,20.066530931705058
384,21.31768691171412
424,21.21764824137214
464,21.196725676916207
504,18.697468535244587
2,1, 7,21, 0, 8, 0.00,10.00,SummerDesignDay
8,13.978831900527043
10,28161890.624757828
618,86434084.04366887
655,0.0
2,1, 7,21, 0, 8,10.00,20.00,SummerDesignDay
8,14.110321014287419
10,28161890.624757828
618,2014566.6411428787
655,0.0
2,1, 7,21, 0, 8,20.00,30.00,SummerDesignDay
8,14.241191509616986
10,28161890.624757828
618,3333507.5842923775
655,0.0
2,1, 7,21, 0, 8,30.00,40.00,SummerDesignDay
8,14.371447531304272
10,28161890.624757828
618,0.0
655,0.0
2,1, 7,21, 0, 8,40.00,50.00,SummerDesignDay
8,14.501093766564925
10,28161890.624757828
618,0.0
655,0.0
2,1, 7,21, 0, 8,50.00,60.00,SummerDesignDay
8,14.630134792273804
10,28161890.624757828
618,0.0
655,0.0
2,1, 7,21, 0, 8, 0.00,60.00,SummerDesignDay
344,22.25002422083227
384,22.571258290098397
424,22.599706551308029
464,22.570733438135624
504,20.14850997321231
2,1, 7,21, 0, 9, 0.00,10.00,SummerDesignDay
8,14.773641492809972
10,71723403.08105099
618,26136813.86574717
655,1858930.8727165396
2,1, 7,21, 0, 9,10.00,20.00,SummerDesignDay
8,14.91640948124148
10,71723403.08105099
618,2218587.038936562
655,27623274.561508396
2,1, 7,21, 0, 9,20.00,30.00,SummerDesignDay
8,15.05843890714102
10,71723403.08105099
618,1955669.2539586034
655,47005459.281960267
2,1, 7,21, 0, 9,30.00,40.00,SummerDesignDay
8,15.199735893563798
10,71723403.08105099
618,0.0
655,66746307.84664446
2,1, 7,21, 0, 9,40.00,50.00,SummerDesignDay
8,15.340306256439395
10,71723403.08105099
618,0.0
655,59617693.83640717
2,1, 7,21, 0, 9,50.00,60.00,SummerDesignDay
8,15.48015101768072
10,71723403.08105099
618,0.0
655,64480428.872681368
2,1, 7,21, 0, 9, 0.00,60.00,SummerDesignDay
344,23.62360295083035
384,23.910729065434727
424,23.916474494311207
464,23.900628051121087
504,22.145698582381049
2,1, 7,21, 0,10, 0.00,10.00,SummerDesignDay
8,15.60467292907716
10,80435705.57230963
618,0.0
655,77897406.91735474
2,1, 7,21, 0,10,10.00,20.00,SummerDesignDay
8,15.72862731650033
10,80435705.57230963
618,0.0
655,80855707.09014765
2,1, 7,21, 0,10,20.00,30.00,SummerDesignDay
8,15.852017409284228
10,80435705.57230963
618,0.0
655,82717189.13018827
2,1, 7,21, 0,10,30.00,40.00,SummerDesignDay
8,15.974848118364367
10,80435705.57230963
618,0.0
655,84524550.34814415
2,1, 7,21, 0,10,40.00,50.00,SummerDesignDay
8,16.097123145563505
10,80435705.57230963
618,0.0
655,86151800.91620147
2,1, 7,21, 0,10,50.00,60.00,SummerDesignDay
8,16.218846351168599
10,80435705.57230963
618,0.0
655,87671919.1963538
2,1, 7,21, 0,10, 0.00,60.00,SummerDesignDay
344,23.999999999560058
384,23.999999999996648
424,23.99999999999613
464,23.999999999996534
504,23.056776752383745
2,1, 7,21, 0,11, 0.00,10.00,SummerDesignDay
8,16.325793027093189
10,80435705.57230963
618,0.0
655,90310574.85862135
2,1, 7,21, 0,11,10.00,20.00,SummerDesignDay
8,16.432322158488288
10,80435705.57230963
618,0.0
655,96269048.54541265
2,1, 7,21, 0,11,20.00,30.00,SummerDesignDay
8,16.538424180249178
10,80435705.57230963
618,0.0
655,97371806.16996317
2,1, 7,21, 0,11,30.00,40.00,SummerDesignDay
8,16.644108396469087
10,80435705.57230963
618,0.0
655,100492146.49222927
2,1, 7,21, 0,11,40.00,50.00,SummerDesignDay
8,16.749376736593655
10,80435705.57230963
618,0.0
655,103217803.49537497
2,1, 7,21, 0,11,50.00,60.00,SummerDesignDay
8,16.854232613237156
10,80435705.57230963
618,0.0
655,105850936.46157679
2,1, 7,21, 0,11, 0.00,60.00,SummerDesignDay
344,24.00000000000003
384,24.000000000000015
424,24.000000000000033
464,24.00000000000003
504,23.990439324276144
2,1, 7,21, 0,12, 0.00,10.00,SummerDesignDay
8,16.92390823520069
10,80435705.57230963
618,0.0
655,107608751.78171237
2,1, 7,21, 0,12,10.00,20.00,SummerDesignDay
8,16.99340178950456
10,80435705.57230963
618,0.0
655,109345917.55159669
2,1, 7,21, 0,12,20.00,30.00,SummerDesignDay
8,17.06272006743463
10,80435705.57230963
618,0.0
655,111060504.18464324
2,1, 7,21, 0,12,30.00,40.00,SummerDesignDay
8,17.131853229172639
10,80435705.57230963
618,0.0
655,112764428.74149019
2,1, 7,21, 0,12,40.00,50.00,SummerDesignDay
8,17.200807172194087
10,80435705.57230963
618,0.0
655,114457265.49906759
2,1, 7,21, 0,12,50.00,60.00,SummerDesignDay
8,17.269582116758607
10,80435705.57230963
618,0.0
655,116137774.31512867
2,1, 7,21, 0,12, 0.00,60.00,SummerDesignDay
344,24.00000000000004
384,24.000000000000055
424,24.000000000000026
464,24.00000000000004
504,23.999999750526013
2,1, 7,21, 0,13, 0.00,10.00,SummerDesignDay
8,17.32447360221357
10,80435705.57230963
618,0.0
655,110480754.39685783
2,1, 7,21, 0,13,10.00,20.00,SummerDesignDay
8,17.379251291230806
10,80435705.57230963
618,0.0
655,111285089.07843192
2,1, 7,21, 0,13,20.00,30.00,SummerDesignDay
8,17.433921312061729
10,80435705.57230963
618,0.0
655,112338079.04474753
2,1, 7,21, 0,13,30.00,40.00,SummerDesignDay
8,17.488473222557489
10,80435705.57230963
618,0.0
655,113356091.5596886
2,1, 7,21, 0,13,40.00,50.00,SummerDesignDay
8,17.542913447755134
10,80435705.57230963
618,0.0
655,114418446.71885707
2,1, 7,21, 0,13,50.00,60.00,SummerDesignDay
8,17.59724609886134
10,80435705.57230963
618,0.0
655,115532113.30803232
2,1, 7,21, 0,13, 0.00,60.00,SummerDesignDay
344,24.00000000000001
384,24.000000000000019
424,24.000000000000026
464,24.0
504,23.99999999999333
2,1, 7,21, 0,14, 0.00,10.00,SummerDesignDay
8,17.6311450462694
10,80435705.57230963
618,0.0
655,116189357.5070236
2,1, 7,21, 0,14,10.00,20.00,SummerDesignDay
8,17.665000449016245
10,80435705.57230963
618,0.0
655,116882460.4519936
2,1, 7,21, 0,14,20.00,30.00,SummerDesignDay
8,17.698812743128934
10,80435705.57230963
618,0.0
655,117599431.01568039
2,1, 7,21, 0,14,30.00,40.00,SummerDesignDay
8,17.732582050940107
10,80435705.57230963
618,0.0
655,118334998.64718187
2,1, 7,21, 0,14,40.00,50.00,SummerDesignDay
8,17.766307345121004
10,80435705.57230963
618,0.0
655,119086383.92261993
2,1, 7,21, 0,14,50.00,60.00,SummerDesignDay
8,17.79999023167558
10,80435705.57230963
618,0.0
655,119851323.3056354
2,1, 7,21, 0,14, 0.00,60.00,SummerDesignDay
344,24.00000000000001
384,24.00000000000003
424,24.00000000000001
464,23.99999999999999
504,24.0
2,1, 7,21, 0,15, 0.00,10.00,SummerDesignDay
8,17.79999023167558
10,80435705.57230963
618,0.0
655,126443749.35813362
2,1, 7,21, 0,15,10.00,20.00,SummerDesignDay
8,17.79999023167558
10,80435705.57230963
618,0.0
655,126979362.70499003
2,1, 7,21, 0,15,20.00,30.00,SummerDesignDay
8,17.79999023167558
10,80435705.57230963
618,0.0
655,127294121.5848063
2,1, 7,21, 0,15,30.00,40.00,SummerDesignDay
8,17.79999023167558
10,80435705.57230963
618,0.0
655,127651243.89935223
2,1, 7,21, 0,15,40.00,50.00,SummerDesignDay
8,17.79999023167558
10,80435705.57230963
618,0.0
655,127957279.01346642
2,1, 7,21, 0,15,50.00,60.00,SummerDesignDay
8,17.79999023167558
10,80435705.57230963
618,0.0
655,128202542.1525099
2,1, 7,21, 0,15, 0.00,60.00,SummerDesignDay
344,24.00000000000001
384,24.000000000000044
424,24.00000000000001
464,24.00000000000001
504,24.0
2,1, 7,21, 0,16, 0.00,10.00,SummerDesignDay
8,17.759562446305357
10,80435705.57230963
618,0.0
655,127400403.96992971
2,1, 7,21, 0,16,10.00,20.00,SummerDesignDay
8,17.71907809634183
10,80435705.57230963
618,0.0
655,126560553.14204799
2,1, 7,21, 0,16,20.00,30.00,SummerDesignDay
8,17.67853788661001
10,80435705.57230963
618,0.0
655,125685763.05823177
2,1, 7,21, 0,16,30.00,40.00,SummerDesignDay
8,17.63791796367351
10,80435705.57230963
618,0.0
655,124788979.44075501
2,1, 7,21, 0,16,40.00,50.00,SummerDesignDay
8,17.59724609886134
10,80435705.57230963
618,0.0
655,123876379.24166958
2,1, 7,21, 0,16,50.00,60.00,SummerDesignDay
8,17.55650676726033
10,80435705.57230963
618,0.0
655,122949721.97275275
2,1, 7,21, 0,16, 0.00,60.00,SummerDesignDay
344,24.000000000000019
384,24.000000000000033
424,24.00000000000004
464,24.000000000000026
504,24.0
2,1, 7,21, 0,17, 0.00,10.00,SummerDesignDay
8,17.50209486331892
10,80435705.57230963
618,0.0
655,121678720.68819805
2,1, 7,21, 0,17,10.00,20.00,SummerDesignDay
8,17.447570789624618
10,80435705.57230963
618,0.0
655,120397633.2423758
2,1, 7,21, 0,17,20.00,30.00,SummerDesignDay
8,17.392929544208135
10,80435705.57230963
618,0.0
655,119108124.18933952
2,1, 7,21, 0,17,30.00,40.00,SummerDesignDay
8,17.33818013976614
10,80435705.57230963
618,0.0
655,117811709.51429779
2,1, 7,21, 0,17,40.00,50.00,SummerDesignDay
8,17.283317298559309
10,80435705.57230963
618,0.0
655,116509552.72228483
2,1, 7,21, 0,17,50.00,60.00,SummerDesignDay
8,17.22833552437677
10,80435705.57230963
618,0.0
655,115202597.9594976
2,1, 7,21, 0,17, 0.00,60.00,SummerDesignDay
344,24.00000000000001
384,24.000000000000019
424,24.0
464,24.00000000000003
504,24.0
2,1, 7,21, 0,18, 0.00,10.00,SummerDesignDay
8,17.159453019160176
10,75004625.77233751
618,0.0
655,105679651.0833854
2,1, 7,21, 0,18,10.00,20.00,SummerDesignDay
8,17.090391773337136
10,75004625.77233751
618,0.0
655,103220548.9663719
2,1, 7,21, 0,18,20.00,30.00,SummerDesignDay
8,17.021151077964786
10,75004625.77233751
618,0.0
655,101427145.72974918
2,1, 7,21, 0,18,30.00,40.00,SummerDesignDay
8,16.951729380464653
10,75004625.77233751
618,0.0
655,99534727.44493634
2,1, 7,21, 0,18,40.00,50.00,SummerDesignDay
8,16.882126503829249
10,75004625.77233751
618,0.0
655,97702959.18675831
2,1, 7,21, 0,18,50.00,60.00,SummerDesignDay
8,16.812341807494034
10,75004625.77233751
618,0.0
655,95903331.75096677
2,1, 7,21, 0,18, 0.00,60.00,SummerDesignDay
344,24.00000000000001
384,24.000000000000019
424,24.00000000000003
464,24.000000000000044
504,24.000000000000005
2,1, 7,21, 0,19, 0.00,10.00,SummerDesignDay
8,16.707321072823203
10,45586495.6072751
618,0.0
655,62576588.89676422
2,1, 7,21, 0,19,10.00,20.00,SummerDesignDay
8,16.601881826644556
10,45586495.6072751
618,0.0
655,57697018.777948368
2,1, 7,21, 0,19,20.00,30.00,SummerDesignDay
8,16.496030555252849
10,45586495.6072751
618,0.0
655,54702966.57201229
2,1, 7,21, 0,19,30.00,40.00,SummerDesignDay
8,16.389760181474104
10,45586495.6072751
618,0.0
655,51580282.82774397
2,1, 7,21, 0,19,40.00,50.00,SummerDesignDay
8,16.283067654262039
10,45586495.6072751
618,0.0
655,48623690.76256298
2,1, 7,21, 0,19,50.00,60.00,SummerDesignDay
8,16.17595057957811
10,45586495.6072751
618,0.0
655,45780345.261599298
2,1, 7,21, 0,19, 0.00,60.00,SummerDesignDay
344,24.0
384,24.00000000000001
424,24.00000000000001
464,24.000000000000019
504,24.0
2,1, 7,21, 0,20, 0.00,10.00,SummerDesignDay
8,16.097123145563505
10,28161890.624757828
618,0.0
655,25904530.47647294
2,1, 7,21, 0,20,10.00,20.00,SummerDesignDay
8,16.018070242471564
10,28161890.624757828
618,0.0
655,23200060.67405975
2,1, 7,21, 0,20,20.00,30.00,SummerDesignDay
8,15.938779752340516
10,28161890.624757828
618,0.0
655,21888404.71535492
2,1, 7,21, 0,20,30.00,40.00,SummerDesignDay
8,15.85926152575189
10,28161890.624757828
618,0.0
655,20554547.15322654
2,1, 7,21, 0,20,40.00,50.00,SummerDesignDay
8,15.779503718563929
10,28161890.624757828
618,0.0
655,19243664.372801413
2,1, 7,21, 0,20,50.00,60.00,SummerDesignDay
8,15.699515709672767
10,28161890.624757828
618,0.0
655,17900484.842025676
2,1, 7,21, 0,20, 0.00,60.00,SummerDesignDay
344,24.0
384,24.00000000000001
424,24.0
464,24.0
504,23.786858144757159
2,1, 7,21, 0,21, 0.00,10.00,SummerDesignDay
8,15.63389147320404
10,28161890.624757828
618,0.0
655,16766602.238935918
2,1, 7,21, 0,21,10.00,20.00,SummerDesignDay
8,15.56810827419793
10,28161890.624757828
618,0.0
655,15679824.546292633
2,1, 7,21, 0,21,20.00,30.00,SummerDesignDay
8,15.502170882753524
10,28161890.624757828
618,0.0
655,14627937.928158459
2,1, 7,21, 0,21,30.00,40.00,SummerDesignDay
8,15.436068032613852
10,28161890.624757828
618,0.0
655,13603164.792251328
2,1, 7,21, 0,21,40.00,50.00,SummerDesignDay
8,15.369804371206009
10,28161890.624757828
618,0.0
655,12599615.935028023
2,1, 7,21, 0,21,50.00,60.00,SummerDesignDay
8,15.303384603594449
10,28161890.624757828
618,0.0
655,11612720.425948793
2,1, 7,21, 0,21, 0.00,60.00,SummerDesignDay
344,24.0
384,24.00000000000001
424,24.0
464,24.0
504,22.97046990912642
2,1, 7,21, 0,22, 0.00,10.00,SummerDesignDay
8,15.236797685071274
10,14018508.333527092
618,0.0
655,0.0
2,1, 7,21, 0,22,10.00,20.00,SummerDesignDay
8,15.170047891787942
10,14018508.333527092
618,0.0
655,0.0
2,1, 7,21, 0,22,20.00,30.00,SummerDesignDay
8,15.103134826860483
10,14018508.333527092
618,0.0
655,0.0
2,1, 7,21, 0,22,30.00,40.00,SummerDesignDay
8,15.036063385178485
10,14018508.333527092
618,0.0
655,0.0
2,1, 7,21, 0,22,40.00,50.00,SummerDesignDay
8,14.968821767219835
10,14018508.333527092
618,1493652.6663498516
655,0.0
2,1, 7,21, 0,22,50.00,60.00,SummerDesignDay
8,14.90141525878635
10,14018508.333527092
618,2469765.1940695114
655,0.0
2,1, 7,21, 0,22, 0.00,60.00,SummerDesignDay
344,23.54249827172286
384,23.983190302310836
424,23.981535878710657
464,23.96477521822276
504,22.195670497549146
2,1, 7,21, 0,23, 0.00,10.00,SummerDesignDay
8,14.848873673278373
10,14018508.333527092
618,2822780.948736534
655,0.0
2,1, 7,21, 0,23,10.00,20.00,SummerDesignDay
8,14.796237168136719
10,14018508.333527092
618,3475837.273890816
655,0.0
2,1, 7,21, 0,23,20.00,30.00,SummerDesignDay
8,14.743494321455645
10,14018508.333527092
618,4037766.472741023
655,0.0
2,1, 7,21, 0,23,30.00,40.00,SummerDesignDay
8,14.690649975253665
10,14018508.333527092
618,4578650.153273859
655,0.0
2,1, 7,21, 0,23,40.00,50.00,SummerDesignDay
8,14.637704281233117
10,14018508.333527092
618,5111309.5210400749
655,0.0
2,1, 7,21, 0,23,50.00,60.00,SummerDesignDay
8,14.584656914839757
10,14018508.333527092
618,5638778.632210092
655,0.0
2,1, 7,21, 0,23, 0.00,60.00,SummerDesignDay
344,22.820289008005785
384,23.697835880671989
424,23.690383175311607
464,23.657817098358988
504,22.00006421392277
2,1, 7,21, 0,24, 0.00,10.00,SummerDesignDay
8,14.531507212058875
10,11302968.43354104
618,6165923.712161396
655,0.0
2,1, 7,21, 0,24,10.00,20.00,SummerDesignDay
8,14.47825496413355
10,11302968.43354104
618,6696011.988550701
655,0.0
2,1, 7,21, 0,24,20.00,30.00,SummerDesignDay
8,14.4249000133173
10,11302968.43354104
618,7226714.575980448
655,0.0
2,1, 7,21, 0,24,30.00,40.00,SummerDesignDay
8,14.371447531304272
10,11302968.43354104
618,7756742.728758085
655,0.0
2,1, 7,21, 0,24,40.00,50.00,SummerDesignDay
8,14.31788619902223
10,11302968.43354104
618,8285679.671087368
655,0.0
2,1, 7,21, 0,24,50.00,60.00,SummerDesignDay
8,14.264220970176066
10,11302968.43354104
618,8813409.830124848
655,0.0
2,1, 7,21, 0,24, 0.00,60.00,SummerDesignDay
344,22.121922303684458
384,23.151613016685475
424,23.125233876131266
464,23.094543028904174
504,22.000000001021719
3,1, 7,21, 0,SummerDesignDay
345,48.253033312368938,42.51078831783242,20,10,57.74214727828958, 6,60
385,46.18482512081618,42.13434369254059,21,40,53.19900146622128, 7,10
425,46.15806725927367,41.98306351590851,21,40,53.520645081295587, 7,10
465,46.294751490167367,42.164444878790018,21,40,53.595650554796559, 7,10
505,49.981395371892897,40.66869180341078,15,60,63.557787850891617, 6,20
4,1, 7
7,22.2505,16.5,21, 5,60,28.9,21,14,60
1,FORT MCMURRAY AP ANN HTG 99.6% CONDNS DB,  56.65,-111.22,  -7.00, 369.10
2,1, 1,21, 0, 1, 0.00,10.00,WinterDesignDay
8,-36.2
10,11302968.43354104
618,351918053.0526068
655,0.0
2,1, 1,21, 0, 1,10.00,20.00,WinterDesignDay
8,-36.2
10,11302968.43354104
618,351992043.87586006
655,0.0
2,1, 1,21, 0, 1,20.00,30.00,WinterDesignDay
8,-36.2
10,11302968.43354104
618,352055733.18017926
655,0.0
2,1, 1,21, 0, 1,30.00,40.00,WinterDesignDay
8,-36.2
10,11302968.43354104
618,352113090.19420507
655,0.0
2,1, 1,21, 0, 1,40.00,50.00,WinterDesignDay
8,-36.2
10,11302968.43354104
618,352162053.29918327
655,0.0
2,1, 1,21, 0, 1,50.00,60.00,WinterDesignDay
8,-36.2
10,11302968.43354104
618,352203095.28835257
655,0.0
2,1, 1,21, 0, 1, 0.00,60.00,WinterDesignDay
344,18.000000000000008
384,18.00000000000001
424,18.00000000000001
464,18.000000000000005
504,22.0
2,1, 1,21, 0, 2, 0.00,10.00,WinterDesignDay
8,-36.2
10,11302968.43354104
618,296705337.06665506
655,0.0
2,1, 1,21, 0, 2,10.00,20.00,WinterDesignDay
8,-36.2
10,11302968.43354104
618,332740925.0130811
655,0.0
2,1, 1,21, 0, 2,20.00,30.00,WinterDesignDay
8,-36.2
10,11302968.43354104
618,326595656.33313718
655,0.0
2,1, 1,21, 0, 2,30.00,40.00,WinterDesignDay
8,-36.2
10,11302968.43354104
618,333211946.45057216
655,0.0
2,1, 1,21, 0, 2,40.00,50.00,WinterDesignDay
8,-36.2
10,11302968.43354104
618,334366646.9144236
655,0.0
2,1, 1,21, 0, 2,50.00,60.00,WinterDesignDay
8,-36.2
10,11302968.43354104
618,334709708.0980302
655,0.0
2,1, 1,21, 0, 2, 0.00,60.00,WinterDesignDay
344,18.000000000000005
384,18.000000000000008
424,18.00000000000001
464,18.000000000000008
504,18.062671092290164
2,1, 1,21, 0, 3, 0.00,10.00,WinterDesignDay
8,-36.2
10,11302968.43354104
618,334941686.607166
655,0.0
2,1, 1,21, 0, 3,10.00,20.00,WinterDesignDay
8,-36.2
10,11302968.43354104
618,335118063.3398052
655,0.0
2,1, 1,21, 0, 3,20.00,30.00,WinterDesignDay
8,-36.2
10,11302968.43354104
618,335262212.0899961
655,0.0
2,1, 1,21, 0, 3,30.00,40.00,WinterDesignDay
8,-36.2
10,11302968.43354104
618,335370818.2358821
655,0.0
2,1, 1,21, 0, 3,40.00,50.00,WinterDesignDay
8,-36.2
10,11302968.43354104
618,335460321.8017211
655,0.0
2,1, 1,21, 0, 3,50.00,60.00,WinterDesignDay
8,-36.2
10,11302968.43354104
618,335526921.8738601
655,0.0
2,1, 1,21, 0, 3, 0.00,60.00,WinterDesignDay
344,18.000000000000005
384,18.000000000000008
424,18.00000000000001
464,18.000000000000008
504,18.0000000431228
2,1, 1,21, 0, 4, 0.00,10.00,WinterDesignDay
8,-36.2
10,11302968.43354104
618,335583044.9277591
655,0.0
2,1, 1,21, 0, 4,10.00,20.00,WinterDesignDay
8,-36.2
10,11302968.43354104
618,335623101.6326325
655,0.0
2,1, 1,21, 0, 4,20.00,30.00,WinterDesignDay
8,-36.2
10,11302968.43354104
618,335657692.3492816
655,0.0
2,1, 1,21, 0, 4,30.00,40.00,WinterDesignDay
8,-36.2
10,11302968.43354104
618,335688967.2325052
655,0.0
2,1, 1,21, 0, 4,40.00,50.00,WinterDesignDay
8,-36.2
10,11302968.43354104
618,335715734.9654908
655,0.0
2,1, 1,21, 0, 4,50.00,60.00,WinterDesignDay
8,-36.2
10,11302968.43354104
618,335738208.3996269
655,0.0
2,1, 1,21, 0, 4, 0.00,60.00,WinterDesignDay
344,18.000000000000008
384,18.000000000000005
424,18.000000000000008
464,18.000000000000005
504,18.000000000000566
2,1, 1,21, 0, 5, 0.00,10.00,WinterDesignDay
8,-36.2
10,11302968.43354104
618,335756968.67424908
655,0.0
2,1, 1,21, 0, 5,10.00,20.00,WinterDesignDay
8,-36.2
10,11302968.43354104
618,335772628.2024291
655,0.0
2,1, 1,21, 0, 5,20.00,30.00,WinterDesignDay
8,-36.2
10,11302968.43354104
618,335785731.57833757
655,0.0
2,1, 1,21, 0, 5,30.00,40.00,WinterDesignDay
8,-36.2
10,11302968.43354104
618,335793557.54986426
655,0.0
2,1, 1,21, 0, 5,40.00,50.00,WinterDesignDay
8,-36.2
10,11302968.43354104
618,335799976.63546636
655,0.0
2,1, 1,21, 0, 5,50.00,60.00,WinterDesignDay
8,-36.2
10,11302968.43354104
618,335806419.6254531
655,0.0
2,1, 1,21, 0, 5, 0.00,60.00,WinterDesignDay
344,18.000000000000005
384,18.000000000000005
424,18.00000000000001
464,18.00000000000001
504,18.000000000000005
2,1, 1,21, 0, 6, 0.00,10.00,WinterDesignDay
8,-36.2
10,11302968.43354104
618,335812504.4558426
655,0.0
2,1, 1,21, 0, 6,10.00,20.00,WinterDesignDay
8,-36.2
10,11302968.43354104
618,335818126.3714012
655,0.0
2,1, 1,21, 0, 6,20.00,30.00,WinterDesignDay
8,-36.2
10,11302968.43354104
618,335823226.75127068
655,0.0
2,1, 1,21, 0, 6,30.00,40.00,WinterDesignDay
8,-36.2
10,11302968.43354104
618,335827827.35802546
655,0.0
2,1, 1,21, 0, 6,40.00,50.00,WinterDesignDay
8,-36.2
10,11302968.43354104
618,335831954.97497358
655,0.0
2,1, 1,21, 0, 6,50.00,60.00,WinterDesignDay
8,-36.2
10,11302968.43354104
618,335835655.873309
655,0.0
2,1, 1,21, 0, 6, 0.00,60.00,WinterDesignDay
344,18.000000000000008
384,18.00000000000001
424,18.000000000000008
464,18.00000000000001
504,18.000000000000005
2,1, 1,21, 0, 7, 0.00,10.00,WinterDesignDay
8,-36.2
10,11302968.43354104
618,448514091.93860808
655,0.0
2,1, 1,21, 0, 7,10.00,20.00,WinterDesignDay
8,-36.2
10,11302968.43354104
618,257234904.05104564
655,0.0
2,1, 1,21, 0, 7,20.00,30.00,WinterDesignDay
8,-36.2
10,11302968.43354104
618,384789496.421909
655,0.0
2,1, 1,21, 0, 7,30.00,40.00,WinterDesignDay
8,-36.2
10,11302968.43354104
618,351221426.6529428
655,0.0
2,1, 1,21, 0, 7,40.00,50.00,WinterDesignDay
8,-36.2
10,11302968.43354104
618,352220102.75227817
655,0.0
2,1, 1,21, 0, 7,50.00,60.00,WinterDesignDay
8,-36.2
10,11302968.43354104
618,351783229.47118917
655,0.0
2,1, 1,21, 0, 7, 0.00,60.00,WinterDesignDay
344,20.007914784232285
384,20.02930046007057
424,20.02934776365275
464,20.029312688538704
504,18.000000000000005
2,1, 1,21, 0, 8, 0.00,10.00,WinterDesignDay
8,-36.2
10,28161890.624757828
618,467503552.45448508
655,0.0
2,1, 1,21, 0, 8,10.00,20.00,WinterDesignDay
8,-36.2
10,28161890.624757828
618,248231806.71361459
655,0.0
2,1, 1,21, 0, 8,20.00,30.00,WinterDesignDay
8,-36.2
10,28161890.624757828
618,401866869.9119755
655,0.0
2,1, 1,21, 0, 8,30.00,40.00,WinterDesignDay
8,-36.2
10,28161890.624757828
618,360763708.53661146
655,0.0
2,1, 1,21, 0, 8,40.00,50.00,WinterDesignDay
8,-36.2
10,28161890.624757828
618,361382272.36059018
655,0.0
2,1, 1,21, 0, 8,50.00,60.00,WinterDesignDay
8,-36.2
10,28161890.624757828
618,360427163.4453583
655,0.0
2,1, 1,21, 0, 8, 0.00,60.00,WinterDesignDay
344,22.00757111417607
384,22.03464398689633
424,22.03617261152097
464,22.035811468228674
504,19.997156319188929
2,1, 1,21, 0, 9, 0.00,10.00,WinterDesignDay
8,-36.2
10,71723403.08105099
618,354466051.81947746
655,0.0
2,1, 1,21, 0, 9,10.00,20.00,WinterDesignDay
8,-36.2
10,71723403.08105099
618,306886718.4216521
655,0.0
2,1, 1,21, 0, 9,20.00,30.00,WinterDesignDay
8,-36.2
10,71723403.08105099
618,329775404.96765759
655,0.0
2,1, 1,21, 0, 9,30.00,40.00,WinterDesignDay
8,-36.2
10,71723403.08105099
618,322804226.42205259
655,0.0
2,1, 1,21, 0, 9,40.00,50.00,WinterDesignDay
8,-36.2
10,71723403.08105099
618,321520204.8606853
655,0.0
2,1, 1,21, 0, 9,50.00,60.00,WinterDesignDay
8,-36.2
10,71723403.08105099
618,320528372.0750781
655,0.0
2,1, 1,21, 0, 9, 0.00,60.00,WinterDesignDay
344,22.000000000000015
384,22.00000000000001
424,22.000000000000019
464,22.000000000000015
504,21.9964303229319
2,1, 1,21, 0,10, 0.00,10.00,WinterDesignDay
8,-36.2
10,80435705.57230963
618,310189692.1030559
655,0.0
2,1, 1,21, 0,10,10.00,20.00,WinterDesignDay
8,-36.2
10,80435705.57230963
618,308679908.0772295
655,0.0
2,1, 1,21, 0,10,20.00,30.00,WinterDesignDay
8,-36.2
10,80435705.57230963
618,308103296.2547232
655,0.0
2,1, 1,21, 0,10,30.00,40.00,WinterDesignDay
8,-36.2
10,80435705.57230963
618,307541939.01547446
655,0.0
2,1, 1,21, 0,10,40.00,50.00,WinterDesignDay
8,-36.2
10,80435705.57230963
618,307114122.80424836
655,0.0
2,1, 1,21, 0,10,50.00,60.00,WinterDesignDay
8,-36.2
10,80435705.57230963
618,306789604.7598495
655,0.0
2,1, 1,21, 0,10, 0.00,60.00,WinterDesignDay