Program Version,EnergyPlus, Version 8.9.0-eba93e8e1b, YMD=2019.04.04 17:58
1,5,Environment Title[],Latitude[deg],Longitude[deg],Time Zone[],Elevation[m]
2,8,Day of Simulation[],Month[],Day of Month[],DST Indicator[1=yes 0=no],Hour[],StartMinute[],EndMinute[],DayType
3,5,Cumulative Day of Simulation[],Month[],Day of Month[],DST Indicator[1=yes 0=no],DayType  ! When Daily Report Variables Requested
4,2,Cumulative Days of Simulation[],Month[]  ! When Monthly Report Variables Requested
5,1,Cumulative Days of Simulation[] ! When Run Period Report Variables Requested
6,1,Calendar Year of Simulation[] ! When Annual Report Variables Requested
7,9,Environment,Site Outdoor Air Drybulb Temperature [C] !Monthly [Value,Min,Day,Hour,Minute,Max,Day,Hour,Minute]
8,1,Environment,Site Outdoor Air Wetbulb Temperature [C] !TimeStep
357,1,WAREHOUSE - MED/BLK2 - REFRIGERATED-SPACE FUNCTION ZN,Zone Air Temperature [C] !Hourly
358,7,WAREHOUSE - MED/BLK2 - REFRIGERATED-SPACE FUNCTION ZN,Zone Air Relative Humidity [%] !Daily [Value,Min,Hour,Minute,Max,Hour,Minute]
397,1,WHOLEBUILDING-SPORTS ARENA ZN,Zone Air Temperature [C] !Hourly
398,7,WHOLEBUILDING-SPORTS ARENA ZN,Zone Air Relative Humidity [%] !Daily [Value,Min,Hour,Minute,Max,Hour,Minute]
437,1,WHOLEBUILDING-TOWN HALL ZN,Zone Air Temperature [C] !Hourly
438,7,WHOLEBUILDING-TOWN HALL ZN,Zone Air Relative Humidity [%] !Daily [Value,Min,Hour,Minute,Max,Hour,Minute]
477,1,WHOLEBUILDING-TRANSPORTATION ZN,Zone Air Temperature [C] !Hourly
478,7,WHOLEBUILDING-TRANSPORTATION ZN,Zone Air Relative Humidity [%] !Daily [Value,Min,Hour,Minute,Max,Hour,Minute]
517,1,WORKSHOP SPACE-SPACE FUNCTION ZN,Zone Air Temperature [C] !Hourly
518,7,WORKSHOP SPACE-SPACE FUNCTION ZN,Zone Air Relative Humidity [%] !Daily [Value,Min,Hour,Minute,Max,Hour,Minute]
10,1,Electricity:Facility [J] !TimeStep
668,1,DistrictCooling:Facility [J] !TimeStep
631,1,DistrictHeating:Facility [J] !TimeStep
End of Data Dictionary
1,FORT MCMURRAY AP ANN CLG .4% CONDNS DB=>MWB,  56.65,-111.22,  -7.00, 369.10
2,1, 7,21, 0, 1, 0.00,10.00,SummerDesignDay
8,14.218136923962174
10,24189173.690723689
631,0.0
668,12082112.190832928
2,1, 7,21, 0, 1,10.00,20.00,SummerDesignDay
8,14.171982153293495
10,24189173.690723689
631,0.0
668,11627488.689166122
2,1, 7,21, 0, 1,20.00,30.00,SummerDesignDay
8,14.125744780286427
10,24189173.690723689
631,0.0
668,11217742.830524993
2,1, 7,21, 0, 1,30.00,40.00,SummerDesignDay
8,14.079436086331978
10,24189173.690723689
631,0.0
668,10814032.377801564
2,1, 7,21, 0, 1,40.00,50.00,SummerDesignDay
8,14.033050387896898
10,24189173.690723689
631,0.0
668,10418243.195723976
2,1, 7,21, 0, 1,50.00,60.00,SummerDesignDay
8,13.986581233564835
10,24189173.690723689
631,0.0
668,10029351.717380209
2,1, 7,21, 0, 1, 0.00,60.00,SummerDesignDay
357,22.605863682062119
397,24.000000000000005
437,22.59935310179503
477,24.000000000000019
517,20.84044162251867
2,1, 7,21, 0, 2, 0.00,10.00,SummerDesignDay
8,13.95555882260429
10,19959208.895169099
631,0.0
668,7043754.846735291
2,1, 7,21, 0, 2,10.00,20.00,SummerDesignDay
8,13.924507755336454
10,19959208.895169099
631,0.0
668,6912900.257758181
2,1, 7,21, 0, 2,20.00,30.00,SummerDesignDay
8,13.893416042989206
10,19959208.895169099
631,0.0
668,6782751.705018905
2,1, 7,21, 0, 2,30.00,40.00,SummerDesignDay
8,13.862289589689029
10,19959208.895169099
631,0.0
668,6655090.939423573
2,1, 7,21, 0, 2,40.00,50.00,SummerDesignDay
8,13.831134407608739
10,19959208.895169099
631,0.0
668,6530165.612266921
2,1, 7,21, 0, 2,50.00,60.00,SummerDesignDay
8,13.799938415548118
10,19959208.895169099
631,0.0
668,6407228.097281599
2,1, 7,21, 0, 2, 0.00,60.00,SummerDesignDay
357,22.24845851108122
397,23.454665041342556
437,22.13259453675018
477,24.00000000000001
517,20.338757048916699
2,1, 7,21, 0, 3, 0.00,10.00,SummerDesignDay
8,13.776521671948676
10,15729244.099614509
631,0.0
668,6306262.617214104
2,1, 7,21, 0, 3,10.00,20.00,SummerDesignDay
8,13.753085235778466
10,15729244.099614509
631,0.0
668,6206269.16194438
2,1, 7,21, 0, 3,20.00,30.00,SummerDesignDay
8,13.729636002354969
10,15729244.099614509
631,0.0
668,6107953.747338904
2,1, 7,21, 0, 3,30.00,40.00,SummerDesignDay
8,13.706147375533054
10,15729244.099614509
631,0.0
668,6011982.695031213
2,1, 7,21, 0, 3,40.00,50.00,SummerDesignDay
8,13.682651961920304
10,15729244.099614509
631,0.0
668,5918273.150510994
2,1, 7,21, 0, 3,50.00,60.00,SummerDesignDay
8,13.659136670643687
10,15729244.099614509
631,0.0
668,5826191.517332437
2,1, 7,21, 0, 3, 0.00,60.00,SummerDesignDay
357,21.990494124704303
397,22.295803224694255
437,21.8405504945795
477,24.000000000000015
517,19.99083576638669
2,1, 7,21, 0, 4, 0.00,10.00,SummerDesignDay
8,13.63560137410855
10,15729244.099614509
631,0.0
668,5734598.752444369
2,1, 7,21, 0, 4,10.00,20.00,SummerDesignDay
8,13.612040802606578
10,15729244.099614509
631,0.0
668,5642737.799125551
2,1, 7,21, 0, 4,20.00,30.00,SummerDesignDay
8,13.58846620506876
10,15729244.099614509
631,0.0
668,5550251.395453633
2,1, 7,21, 0, 4,30.00,40.00,SummerDesignDay
8,13.56487178447336
10,15729244.099614509
631,0.0
668,5457748.231414828
2,1, 7,21, 0, 4,40.00,50.00,SummerDesignDay
8,13.541257354069103
10,15729244.099614509
631,0.0
668,5365253.841935983
2,1, 7,21, 0, 4,50.00,60.00,SummerDesignDay
8,13.517617463812285
10,15729244.099614509
631,0.0
668,5273514.734708656
2,1, 7,21, 0, 4, 0.00,60.00,SummerDesignDay
357,21.707307610652707
397,21.12491054560193
437,21.54734708013903
477,24.000000000000015
517,19.64520010677882
2,1, 7,21, 0, 5, 0.00,10.00,SummerDesignDay
8,13.50185415824011
10,15729244.099614509
631,0.0
668,5203220.45282681
2,1, 7,21, 0, 5,10.00,20.00,SummerDesignDay
8,13.486076034032447
10,15729244.099614509
631,0.0
668,5133565.858079114
2,1, 7,21, 0, 5,20.00,30.00,SummerDesignDay
8,13.470289340350983
10,15729244.099614509
631,0.0
668,5064759.858469078
2,1, 7,21, 0, 5,30.00,40.00,SummerDesignDay
8,13.454493322631063
10,15729244.099614509
631,0.0
668,4997371.4834756799
2,1, 7,21, 0, 5,40.00,50.00,SummerDesignDay
8,13.438688835118548
10,15729244.099614509
631,0.0
668,4930760.208596695
2,1, 7,21, 0, 5,50.00,60.00,SummerDesignDay
8,13.422888173889437
10,15729244.099614509
631,0.0
668,4865140.780736145
2,1, 7,21, 0, 5, 0.00,60.00,SummerDesignDay
357,21.458897794028279
397,20.542368292505345
437,21.29999476612178
477,24.000000000000015
517,19.36339979450101
2,1, 7,21, 0, 6, 0.00,10.00,SummerDesignDay
8,13.438688835118548
10,15729244.099614509
631,0.0
668,4885367.577946299
2,1, 7,21, 0, 6,10.00,20.00,SummerDesignDay
8,13.454493322631063
10,15729244.099614509
631,0.0
668,4906375.182429744
2,1, 7,21, 0, 6,20.00,30.00,SummerDesignDay
8,13.470289340350983
10,15729244.099614509
631,0.0
668,4928672.663939723
2,1, 7,21, 0, 6,30.00,40.00,SummerDesignDay
8,13.486076034032447
10,15729244.099614509
631,0.0
668,4953446.528984789
2,1, 7,21, 0, 6,40.00,50.00,SummerDesignDay
8,13.50185415824011
10,15729244.099614509
631,0.0
668,4979878.292930389
2,1, 7,21, 0, 6,50.00,60.00,SummerDesignDay
8,13.517617463812285
10,15729244.099614509
631,0.0
668,5009172.787233241
2,1, 7,21, 0, 6, 0.00,60.00,SummerDesignDay
357,21.29026603695509
397,20.273038155700477
437,21.141500998651386
477,24.000000000000019
517,19.23963190128117
2,1, 7,21, 0, 7, 0.00,10.00,SummerDesignDay
8,13.572736920571789
10,15729244.099614509
631,12079943.670527472
668,5144786.051129929
2,1, 7,21, 0, 7,10.00,20.00,SummerDesignDay
8,13.627748229152554
10,15729244.099614509
631,0.0
668,5287356.412676903
2,1, 7,21, 0, 7,20.00,30.00,SummerDesignDay
8,13.682651961920304
10,15729244.099614509
631,0.0
668,5450745.363681354
2,1, 7,21, 0, 7,30.00,40.00,SummerDesignDay
8,13.737448093244995
10,15729244.099614509
631,436704.7600043523
668,5620765.684696716
2,1, 7,21, 0, 7,40.00,50.00,SummerDesignDay
8,13.792137011831216
10,15729244.099614509
631,2127404.0527697119
668,5783460.9519967329
2,1, 7,21, 0, 7,50.00,60.00,SummerDesignDay
8,13.846719282840333
10,15729244.099614509
631,292477.29396991207
668,5937402.477323095
2,1, 7,21, 0, 7, 0.00,60.00,SummerDesignDay
357,21.25505025934824
397,20.263355550396147
437,21.125974596191964
477,24.00000000000001
517,20.143193053545287
2,1, 7,21, 0, 8, 0.00,10.00,SummerDesignDay
8,13.978831900527043
10,25638536.632385795
631,45137333.43339111
668,6308941.913537153
2,1, 7,21, 0, 8,10.00,20.00,SummerDesignDay
8,14.110321014287419
10,25638536.632385795
631,739683.9727260133
668,6723878.959480742
2,1, 7,21, 0, 8,20.00,30.00,SummerDesignDay
8,14.241191509616986
10,25638536.632385795
631,11817434.361229118
668,7195392.647536146
2,1, 7,21, 0, 8,30.00,40.00,SummerDesignDay
8,14.371447531304272
10,25638536.632385795
631,95533.4280449125
668,7659620.6220590299
2,1, 7,21, 0, 8,40.00,50.00,SummerDesignDay
8,14.501093766564925
10,25638536.632385795
631,0.0
668,8108330.586023673
2,1, 7,21, 0, 8,50.00,60.00,SummerDesignDay
8,14.630134792273804
10,25638536.632385795
631,0.0
668,8478198.030481317
2,1, 7,21, 0, 8, 0.00,60.00,SummerDesignDay
357,22.267725883048756
397,20.567066206510373
437,21.30619697184451
477,24.000000000000015
517,22.154672922218088
2,1, 7,21, 0, 9, 0.00,10.00,SummerDesignDay
8,14.773641492809972
10,54175799.134775448
631,6955859.634920677
668,8855558.27944521
2,1, 7,21, 0, 9,10.00,20.00,SummerDesignDay
8,14.91640948124148
10,54175799.134775448
631,0.0
668,9326730.778265058
2,1, 7,21, 0, 9,20.00,30.00,SummerDesignDay
8,15.05843890714102
10,54175799.134775448
631,0.0
668,15840744.562160012
2,1, 7,21, 0, 9,30.00,40.00,SummerDesignDay
8,15.199735893563798
10,54175799.134775448
631,0.0
668,27315477.479904616
2,1, 7,21, 0, 9,40.00,50.00,SummerDesignDay
8,15.340306256439395
10,54175799.134775448
631,0.0
668,37521152.591278929
2,1, 7,21, 0, 9,50.00,60.00,SummerDesignDay
8,15.48015101768072
10,54175799.134775448
631,0.0
668,39631588.49497113
2,1, 7,21, 0, 9, 0.00,60.00,SummerDesignDay
357,23.457518599523764
397,21.289978243164979
437,22.782028204488566
477,24.000000000000005
517,23.677739054096525
2,1, 7,21, 0,10, 0.00,10.00,SummerDesignDay
8,15.60467292907716
10,74879376.82488656
631,0.0
668,58351972.095916967
2,1, 7,21, 0,10,10.00,20.00,SummerDesignDay
8,15.72862731650033
10,74879376.82488656
631,0.0
668,65013320.61910775
2,1, 7,21, 0,10,20.00,30.00,SummerDesignDay
8,15.852017409284228
10,74879376.82488656
631,0.0
668,68703117.72374583
2,1, 7,21, 0,10,30.00,40.00,SummerDesignDay
8,15.974848118364367
10,74879376.82488656
631,0.0
668,71155963.01773069
2,1, 7,21, 0,10,40.00,50.00,SummerDesignDay
8,16.097123145563505
10,74879376.82488656
631,0.0
668,73373735.92675673
2,1, 7,21, 0,10,50.00,60.00,SummerDesignDay
8,16.218846351168599
10,74879376.82488656
631,0.0
668,81501652.6774212
2,1, 7,21, 0,10, 0.00,60.00,SummerDesignDay
357,23.99999997743195
397,23.24346032810064
437,23.99830808198765
477,24.00000000000001
517,23.99999993676944
2,1, 7,21, 0,11, 0.00,10.00,SummerDesignDay
8,16.325793027093189
10,76994359.22266387
631,0.0
668,85314961.5989109
2,1, 7,21, 0,11,10.00,20.00,SummerDesignDay
8,16.432322158488288
10,76994359.22266387
631,0.0
668,87483336.50140183
2,1, 7,21, 0,11,20.00,30.00,SummerDesignDay
8,16.538424180249178
10,76994359.22266387
631,0.0
668,89743446.34735149
2,1, 7,21, 0,11,30.00,40.00,SummerDesignDay
8,16.644108396469087
10,76994359.22266387
631,0.0
668,91673886.35582471
2,1, 7,21, 0,11,40.00,50.00,SummerDesignDay
8,16.749376736593655
10,76994359.22266387
631,0.0
668,93504831.80010866
2,1, 7,21, 0,11,50.00,60.00,SummerDesignDay
8,16.854232613237156
10,76994359.22266387
631,0.0
668,95285648.31250736
2,1, 7,21, 0,11, 0.00,60.00,SummerDesignDay
357,24.000000000000005
397,23.999996699648425
437,23.999999999999944
477,24.000000000000015
517,24.00000000000003
2,1, 7,21, 0,12, 0.00,10.00,SummerDesignDay
8,16.92390823520069
10,79109341.62044116
631,0.0
668,99950601.7780606
2,1, 7,21, 0,12,10.00,20.00,SummerDesignDay
8,16.99340178950456
10,79109341.62044116
631,0.0
668,101501418.52544967
2,1, 7,21, 0,12,20.00,30.00,SummerDesignDay
8,17.06272006743463
10,79109341.62044116
631,0.0
668,102653914.75180242
2,1, 7,21, 0,12,30.00,40.00,SummerDesignDay
8,17.131853229172639
10,79109341.62044116
631,0.0
668,103839113.87729071
2,1, 7,21, 0,12,40.00,50.00,SummerDesignDay
8,17.200807172194087
10,79109341.62044116
631,0.0
668,104985778.42779115
2,1, 7,21, 0,12,50.00,60.00,SummerDesignDay
8,17.269582116758607
10,79109341.62044116
631,0.0
668,106120297.65847221
2,1, 7,21, 0,12, 0.00,60.00,SummerDesignDay
357,24.00000000000001
397,23.99999999999997
437,24.00000000000003
477,24.00000000000003
517,24.00000000000003
2,1, 7,21, 0,13, 0.00,10.00,SummerDesignDay
8,17.32447360221357
10,79109341.62044116
631,0.0
668,108843788.89669633
2,1, 7,21, 0,13,10.00,20.00,SummerDesignDay
8,17.379251291230806
10,79109341.62044116
631,0.0
668,109869685.51714638
2,1, 7,21, 0,13,20.00,30.00,SummerDesignDay
8,17.433921312061729
10,79109341.62044116
631,0.0
668,110786892.19147037
2,1, 7,21, 0,13,30.00,40.00,SummerDesignDay
8,17.488473222557489
10,79109341.62044116
631,0.0
668,111707138.27756226
2,1, 7,21, 0,13,40.00,50.00,SummerDesignDay
8,17.542913447755134
10,79109341.62044116
631,0.0
668,112621544.17692554
2,1, 7,21, 0,13,50.00,60.00,SummerDesignDay
8,17.59724609886134
10,79109341.62044116
631,0.0
668,113528967.41953022
2,1, 7,21, 0,13, 0.00,60.00,SummerDesignDay
357,24.0
397,24.000000000000026
437,24.000000000000044
477,24.0
517,24.000000000000015
2,1, 7,21, 0,14, 0.00,10.00,SummerDesignDay
8,17.6311450462694
10,79109341.62044116
631,0.0
668,113194734.4676879
2,1, 7,21, 0,14,10.00,20.00,SummerDesignDay
8,17.665000449016245
10,79109341.62044116
631,0.0
668,113689476.38389695
2,1, 7,21, 0,14,20.00,30.00,SummerDesignDay
8,17.698812743128934
10,79109341.62044116
631,0.0
668,114223250.79556832
2,1, 7,21, 0,14,30.00,40.00,SummerDesignDay
8,17.732582050940107
10,79109341.62044116
631,0.0
668,114757022.82494343
2,1, 7,21, 0,14,40.00,50.00,SummerDesignDay
8,17.766307345121004
10,79109341.62044116
631,0.0
668,115291378.77942777
2,1, 7,21, 0,14,50.00,60.00,SummerDesignDay
8,17.79999023167558
10,79109341.62044116
631,0.0
668,115826674.35836898
2,1, 7,21, 0,14, 0.00,60.00,SummerDesignDay
357,24.00000000000001
397,24.000000000000005
437,24.00000000000001
477,24.000000000000005
517,24.000000000000047
2,1, 7,21, 0,15, 0.00,10.00,SummerDesignDay
8,17.79999023167558
10,79109341.62044116
631,0.0
668,114266390.8475583
2,1, 7,21, 0,15,10.00,20.00,SummerDesignDay
8,17.79999023167558
10,79109341.62044116
631,0.0
668,114189092.11176859
2,1, 7,21, 0,15,20.00,30.00,SummerDesignDay
8,17.79999023167558
10,79109341.62044116
631,0.0
668,114184191.27782975
2,1, 7,21, 0,15,30.00,40.00,SummerDesignDay
8,17.79999023167558
10,79109341.62044116
631,0.0
668,114175644.51125664
2,1, 7,21, 0,15,40.00,50.00,SummerDesignDay
8,17.79999023167558
10,79109341.62044116
631,0.0
668,114168337.92491576
2,1, 7,21, 0,15,50.00,60.00,SummerDesignDay
8,17.79999023167558
10,79109341.62044116
631,0.0
668,114162621.3801687
2,1, 7,21, 0,15, 0.00,60.00,SummerDesignDay
357,24.00000000000001
397,24.0
437,24.00000000000001
477,24.000000000000019
517,24.00000000000004
2,1, 7,21, 0,16, 0.00,10.00,SummerDesignDay
8,17.759562446305357
10,79109341.62044116
631,0.0
668,111235461.13740295
2,1, 7,21, 0,16,10.00,20.00,SummerDesignDay
8,17.71907809634183
10,79109341.62044116
631,0.0
668,110492287.34374225
2,1, 7,21, 0,16,20.00,30.00,SummerDesignDay
8,17.67853788661001
10,79109341.62044116
631,0.0
668,109844522.09037158
2,1, 7,21, 0,16,30.00,40.00,SummerDesignDay
8,17.63791796367351
10,79109341.62044116
631,0.0
668,109185077.18733329
2,1, 7,21, 0,16,40.00,50.00,SummerDesignDay
8,17.59724609886134
10,79109341.62044116
631,0.0
668,108526684.51949099
2,1, 7,21, 0,16,50.00,60.00,SummerDesignDay
8,17.55650676726033
10,79109341.62044116
631,0.0
668,107870637.58800504
2,1, 7,21, 0,16, 0.00,60.00,SummerDesignDay
357,24.000000000000005
397,24.00000000000001
437,23.999999999999984
477,24.0
517,23.99999999999999
2,1, 7,21, 0,17, 0.00,10.00,SummerDesignDay
8,17.50209486331892
10,75194374.20441258
631,0.0
668,102789181.98414865
2,1, 7,21, 0,17,10.00,20.00,SummerDesignDay
8,17.447570789624618
10,75194374.20441258
631,0.0
668,101560376.8115653
2,1, 7,21, 0,17,20.00,30.00,SummerDesignDay
8,17.392929544208135
10,75194374.20441258
631,0.0
668,100643250.77355755
2,1, 7,21, 0,17,30.00,40.00,SummerDesignDay
8,17.33818013976614
10,75194374.20441258
631,0.0
668,99707639.59737581
2,1, 7,21, 0,17,40.00,50.00,SummerDesignDay
8,17.283317298559309
10,75194374.20441258
631,0.0
668,98776898.61265508
2,1, 7,21, 0,17,50.00,60.00,SummerDesignDay
8,17.22833552437677
10,75194374.20441258
631,0.0
668,97864620.91785507
2,1, 7,21, 0,17, 0.00,60.00,SummerDesignDay
357,24.0
397,24.00000000000001
437,24.000000000000019
477,24.00000000000001
517,24.0
2,1, 7,21, 0,18, 0.00,10.00,SummerDesignDay
8,17.159453019160176
10,67825685.5308503
631,0.0
668,90200978.27145224
2,1, 7,21, 0,18,10.00,20.00,SummerDesignDay
8,17.090391773337136
10,67825685.5308503
631,0.0
668,88447830.1030525
2,1, 7,21, 0,18,20.00,30.00,SummerDesignDay
8,17.021151077964786
10,67825685.5308503
631,0.0
668,87255579.61786954
2,1, 7,21, 0,18,30.00,40.00,SummerDesignDay
8,16.951729380464653
10,67825685.5308503
631,0.0
668,86009564.7455706
2,1, 7,21, 0,18,40.00,50.00,SummerDesignDay
8,16.882126503829249
10,67825685.5308503
631,0.0
668,84815017.734236
2,1, 7,21, 0,18,50.00,60.00,SummerDesignDay
8,16.812341807494034
10,67825685.5308503
631,0.0
668,83639369.96800755
2,1, 7,21, 0,18, 0.00,60.00,SummerDesignDay
357,24.000000000000019
397,24.000000000000019
437,24.0
477,24.00000000000003
517,24.00000000000006
2,1, 7,21, 0,19, 0.00,10.00,SummerDesignDay
8,16.707321072823203
10,52364564.20250086
631,0.0
668,71257208.87177281
2,1, 7,21, 0,19,10.00,20.00,SummerDesignDay
8,16.601881826644556
10,52364564.20250086
631,0.0
668,68418286.08749295
2,1, 7,21, 0,19,20.00,30.00,SummerDesignDay
8,16.496030555252849
10,52364564.20250086
631,0.0
668,66168291.47656691
2,1, 7,21, 0,19,30.00,40.00,SummerDesignDay
8,16.389760181474104
10,52364564.20250086
631,0.0
668,63872576.0380952
2,1, 7,21, 0,19,40.00,50.00,SummerDesignDay
8,16.283067654262039
10,52364564.20250086
631,0.0
668,61680325.60503044
2,1, 7,21, 0,19,50.00,60.00,SummerDesignDay
8,16.17595057957811
10,52364564.20250086
631,0.0
668,59526935.55968575
2,1, 7,21, 0,19, 0.00,60.00,SummerDesignDay
357,24.000000000000005
397,24.00000000000001
437,24.000000000000005
477,24.000000000000026
517,24.000000000000005
2,1, 7,21, 0,20, 0.00,10.00,SummerDesignDay
8,16.097123145563505
10,46822110.32558787
631,0.0
668,54864594.995842639
2,1, 7,21, 0,20,10.00,20.00,SummerDesignDay
8,16.018070242471564
10,46822110.32558787
631,0.0
668,52893520.555020008
2,1, 7,21, 0,20,20.00,30.00,SummerDesignDay
8,15.938779752340516
10,46822110.32558787
631,0.0
668,51212987.251395698
2,1, 7,21, 0,20,30.00,40.00,SummerDesignDay
8,15.85926152575189
10,46822110.32558787
631,0.0
668,49573483.62603878
2,1, 7,21, 0,20,40.00,50.00,SummerDesignDay
8,15.779503718563929
10,46822110.32558787
631,0.0
668,47975684.198606129
2,1, 7,21, 0,20,50.00,60.00,SummerDesignDay
8,15.699515709672767
10,46822110.32558787
631,0.0
668,46398956.357845019
2,1, 7,21, 0,20, 0.00,60.00,SummerDesignDay
357,24.0
397,24.00000000000001
437,24.000000000000005
477,24.000000000000019
517,24.000000000000005
2,1, 7,21, 0,21, 0.00,10.00,SummerDesignDay
8,15.63389147320404
10,46822110.32558787
631,0.0
668,45121388.648879978
2,1, 7,21, 0,21,10.00,20.00,SummerDesignDay
8,15.56810827419793
10,46822110.32558787
631,0.0
668,43855656.55822412
2,1, 7,21, 0,21,20.00,30.00,SummerDesignDay
8,15.502170882753524
10,46822110.32558787
631,0.0
668,42609640.60419256
2,1, 7,21, 0,21,30.00,40.00,SummerDesignDay
8,15.436068032613852
10,46822110.32558787
631,0.0
668,41368843.42995829
2,1, 7,21, 0,21,40.00,50.00,SummerDesignDay
8,15.369804371206009
10,46822110.32558787
631,0.0
668,40130445.38302505
2,1, 7,21, 0,21,50.00,60.00,SummerDesignDay
8,15.303384603594449
10,46822110.32558787
631,0.0
668,38896221.82541792
2,1, 7,21, 0,21, 0.00,60.00,SummerDesignDay
357,24.00000000000001
397,24.00000000000001
437,24.000000000000015
477,24.0
517,24.00000000000001
2,1, 7,21, 0,22, 0.00,10.00,SummerDesignDay
8,15.236797685071274
10,38639678.421583417
631,0.0
668,36125345.152196619
2,1, 7,21, 0,22,10.00,20.00,SummerDesignDay
8,15.170047891787942
10,38639678.421583417
631,0.0
668,35654273.22185446
2,1, 7,21, 0,22,20.00,30.00,SummerDesignDay
8,15.103134826860483
10,38639678.421583417
631,0.0
668,35156851.579527359
2,1, 7,21, 0,22,30.00,40.00,SummerDesignDay
8,15.036063385178485
10,38639678.421583417
631,0.0
668,34656073.442638199
2,1, 7,21, 0,22,40.00,50.00,SummerDesignDay
8,14.968821767219835
10,38639678.421583417
631,0.0
668,34156571.053938519
2,1, 7,21, 0,22,50.00,60.00,SummerDesignDay
8,14.90141525878635
10,38639678.421583417
631,0.0
668,33661368.352683108
2,1, 7,21, 0,22, 0.00,60.00,SummerDesignDay
357,23.86920841541431
397,24.000000000000015
437,24.000000000000005
477,24.000000000000019
517,23.233187266005016
2,1, 7,21, 0,23, 0.00,10.00,SummerDesignDay
8,14.848873673278373
10,30809743.589526249
631,0.0
668,23327929.171263115
2,1, 7,21, 0,23,10.00,20.00,SummerDesignDay
8,14.796237168136719
10,30809743.589526249
631,0.0
668,22195545.84448264
2,1, 7,21, 0,23,20.00,30.00,SummerDesignDay
8,14.743494321455645
10,30809743.589526249
631,0.0
668,21619115.446116903
2,1, 7,21, 0,23,30.00,40.00,SummerDesignDay
8,14.690649975253665
10,30809743.589526249
631,0.0
668,21021059.35995397
2,1, 7,21, 0,23,40.00,50.00,SummerDesignDay
8,14.637704281233117
10,30809743.589526249
631,0.0
668,20475035.146017836
2,1, 7,21, 0,23,50.00,60.00,SummerDesignDay
8,14.584656914839757
10,30809743.589526249
631,0.0
668,19960488.765206417
2,1, 7,21, 0,23, 0.00,60.00,SummerDesignDay
357,23.52460477932512
397,24.00000000000001
437,24.000000000000005
477,24.00000000000001
517,22.30650124813162
2,1, 7,21, 0,24, 0.00,10.00,SummerDesignDay
8,14.531507212058875
10,24189173.690723689
631,0.0
668,15812483.65393777
2,1, 7,21, 0,24,10.00,20.00,SummerDesignDay
8,14.47825496413355
10,24189173.690723689
631,0.0
668,15311445.216432758
2,1, 7,21, 0,24,20.00,30.00,SummerDesignDay
8,14.4249000133173
10,24189173.690723689
631,0.0
668,14867280.194539058
2,1, 7,21, 0,24,30.00,40.00,SummerDesignDay
8,14.371447531304272
10,24189173.690723689
631,0.0
668,14420305.666343589
2,1, 7,21, 0,24,40.00,50.00,SummerDesignDay
8,14.31788619902223
10,24189173.690723689
631,0.0
668,13952041.02634466
2,1, 7,21, 0,24,50.00,60.00,SummerDesignDay
8,14.264220970176066
10,24189173.690723689
631,0.0
668,13472532.844700797
2,1, 7,21, 0,24, 0.00,60.00,SummerDesignDay
357,23.06683995740616
397,23.999999999999998
437,23.39698492725851
477,24.000000000000005
517,21.511954445272523
3,1, 7,21, 0,SummerDesignDay
358,45.25965072997648,40.99983107856153,20,30,53.082676094693919, 7,30
398,49.6586910657689,44.25348852971757,18,20,57.13755873585623, 6,60
438,45.869553776000028,41.43853910869434,22,60,53.56539456970323, 7,10
478,49.23996330990895,47.97546078081047,17,30,51.79212911443651, 7,30
518,47.93608775942264,40.63107285507447,14,60,60.471847417993178, 6,30
4,1, 7
7,22.2505,16.5,21, 5,60,28.9,21,14,60
1,FORT MCMURRAY AP ANN HTG 99.6% CONDNS DB,  56.65,-111.22,  -7.00, 369.10
2,1, 1,21, 0, 1, 0.00,10.00,WinterDesignDay
8,-36.2
10,24189173.690723689
631,255619862.88156016
668,0.0
2,1, 1,21, 0, 1,10.00,20.00,WinterDesignDay
8,-36.2
10,24189173.690723689
631,255948971.77026908
668,0.0
2,1, 1,21, 0, 1,20.00,30.00,WinterDesignDay
8,-36.2
10,24189173.690723689
631,256191549.15252186
668,0.0
2,1, 1,21, 0, 1,30.00,40.00,WinterDesignDay
8,-36.2
10,24189173.690723689
631,256380592.17987228
668,0.0
2,1, 1,21, 0, 1,40.00,50.00,WinterDesignDay
8,-36.2
10,24189173.690723689
631,256524222.53780515
668,0.0
2,1, 1,21, 0, 1,50.00,60.00,WinterDesignDay
8,-36.2
10,24189173.690723689
631,256644820.544225
668,0.0
2,1, 1,21, 0, 1, 0.00,60.00,WinterDesignDay
357,18.000000000000005
397,22.00000000000001
437,18.000000000005874
477,22.000000000000019
517,18.000000000000008
2,1, 1,21, 0, 2, 0.00,10.00,WinterDesignDay
8,-36.2
10,19959208.895169099
631,228618080.15851236
668,0.0
2,1, 1,21, 0, 2,10.00,20.00,WinterDesignDay
8,-36.2
10,19959208.895169099
631,232807748.4291711
668,0.0
2,1, 1,21, 0, 2,20.00,30.00,WinterDesignDay
8,-36.2
10,19959208.895169099
631,244123061.64968664
668,0.0
2,1, 1,21, 0, 2,30.00,40.00,WinterDesignDay
8,-36.2
10,19959208.895169099
631,251440978.0083607
668,0.0
2,1, 1,21, 0, 2,40.00,50.00,WinterDesignDay
8,-36.2
10,19959208.895169099
631,252392217.38037897
668,0.0
2,1, 1,21, 0, 2,50.00,60.00,WinterDesignDay
8,-36.2
10,19959208.895169099
631,252236599.7150209
668,0.0
2,1, 1,21, 0, 2, 0.00,60.00,WinterDesignDay
357,18.000000000000005
397,22.0
437,18.0
477,18.561771239573557
517,18.0
2,1, 1,21, 0, 3, 0.00,10.00,WinterDesignDay
8,-36.2
10,15729244.099614509
631,216077085.78393183
668,0.0
2,1, 1,21, 0, 3,10.00,20.00,WinterDesignDay
8,-36.2
10,15729244.099614509
631,234804348.2392434
668,0.0
2,1, 1,21, 0, 3,20.00,30.00,WinterDesignDay
8,-36.2
10,15729244.099614509
631,249588506.75843916
668,0.0
2,1, 1,21, 0, 3,30.00,40.00,WinterDesignDay
8,-36.2
10,15729244.099614509
631,248172665.0319134
668,0.0
2,1, 1,21, 0, 3,40.00,50.00,WinterDesignDay
8,-36.2
10,15729244.099614509
631,249359547.53205774
668,0.0
2,1, 1,21, 0, 3,50.00,60.00,WinterDesignDay
8,-36.2
10,15729244.099614509
631,250369426.8936656
668,0.0
2,1, 1,21, 0, 3, 0.00,60.00,WinterDesignDay
357,18.000000000000005
397,18.265072702832638
437,18.000000000000005
477,18.0000000000004
517,18.0
2,1, 1,21, 0, 4, 0.00,10.00,WinterDesignDay
8,-36.2
10,15729244.099614509
631,250707149.30822385
668,0.0
2,1, 1,21, 0, 4,10.00,20.00,WinterDesignDay
8,-36.2
10,15729244.099614509
631,250963929.53270475
668,0.0
2,1, 1,21, 0, 4,20.00,30.00,WinterDesignDay
8,-36.2
10,15729244.099614509
631,251160444.0170345
668,0.0
2,1, 1,21, 0, 4,30.00,40.00,WinterDesignDay
8,-36.2
10,15729244.099614509
631,251321515.26906307
668,0.0
2,1, 1,21, 0, 4,40.00,50.00,WinterDesignDay
8,-36.2
10,15729244.099614509
631,251443154.82387395
668,0.0
2,1, 1,21, 0, 4,50.00,60.00,WinterDesignDay
8,-36.2
10,15729244.099614509
631,251543648.47184695
668,0.0
2,1, 1,21, 0, 4, 0.00,60.00,WinterDesignDay
357,18.000000000000005
397,18.000000000000005
437,18.000000000000008
477,18.000000000000026
517,18.000000000000005
2,1, 1,21, 0, 5, 0.00,10.00,WinterDesignDay
8,-36.2
10,15729244.099614509
631,251618578.07578904
668,0.0
2,1, 1,21, 0, 5,10.00,20.00,WinterDesignDay
8,-36.2
10,15729244.099614509
631,251681875.25679145
668,0.0
2,1, 1,21, 0, 5,20.00,30.00,WinterDesignDay
8,-36.2
10,15729244.099614509
631,251727106.7688951
668,0.0
2,1, 1,21, 0, 5,30.00,40.00,WinterDesignDay
8,-36.2
10,15729244.099614509
631,251766289.77440188
668,0.0
2,1, 1,21, 0, 5,40.00,50.00,WinterDesignDay
8,-36.2
10,15729244.099614509
631,251801820.00795765
668,0.0
2,1, 1,21, 0, 5,50.00,60.00,WinterDesignDay
8,-36.2
10,15729244.099614509
631,251832317.67497093
668,0.0
2,1, 1,21, 0, 5, 0.00,60.00,WinterDesignDay
357,18.000000000000005
397,18.00000000000001
437,18.000000000000005
477,18.000000000000019
517,18.00000000000001
2,1, 1,21, 0, 6, 0.00,10.00,WinterDesignDay
8,-36.2
10,15729244.099614509
631,251858006.30646808
668,0.0
2,1, 1,21, 0, 6,10.00,20.00,WinterDesignDay
8,-36.2
10,15729244.099614509
631,251879528.30212767
668,0.0
2,1, 1,21, 0, 6,20.00,30.00,WinterDesignDay
8,-36.2
10,15729244.099614509
631,251897563.51608307
668,0.0
2,1, 1,21, 0, 6,30.00,40.00,WinterDesignDay
8,-36.2
10,15729244.099614509
631,251912717.67100323
668,0.0
2,1, 1,21, 0, 6,40.00,50.00,WinterDesignDay
8,-36.2
10,15729244.099614509
631,251921777.9331373
668,0.0
2,1, 1,21, 0, 6,50.00,60.00,WinterDesignDay
8,-36.2
10,15729244.099614509
631,251929232.4077561
668,0.0
2,1, 1,21, 0, 6, 0.00,60.00,WinterDesignDay
357,18.000000000000005
397,18.000000000000005
437,18.000000000000005
477,18.00000000000003
517,18.000000000000005
2,1, 1,21, 0, 7, 0.00,10.00,WinterDesignDay
8,-36.2
10,15729244.099614509
631,314627649.8141875
668,0.0
2,1, 1,21, 0, 7,10.00,20.00,WinterDesignDay
8,-36.2
10,15729244.099614509
631,215222788.3918712
668,0.0
2,1, 1,21, 0, 7,20.00,30.00,WinterDesignDay
8,-36.2
10,15729244.099614509
631,276844584.89476236
668,0.0
2,1, 1,21, 0, 7,30.00,40.00,WinterDesignDay
8,-36.2
10,15729244.099614509
631,265001772.33857138
668,0.0
2,1, 1,21, 0, 7,40.00,50.00,WinterDesignDay
8,-36.2
10,15729244.099614509
631,262985191.53575552
668,0.0
2,1, 1,21, 0, 7,50.00,60.00,WinterDesignDay
8,-36.2
10,15729244.099614509
631,263121236.94544889
668,0.0
2,1, 1,21, 0, 7, 0.00,60.00,WinterDesignDay
357,20.06809589618695
397,18.0
437,18.000000000000008
477,18.000000000000033
517,19.997184949139656
2,1, 1,21, 0, 8, 0.00,10.00,WinterDesignDay
8,-36.2
10,25638536.632385795
631,368827905.94841197
668,0.0
2,1, 1,21, 0, 8,10.00,20.00,WinterDesignDay
8,-36.2
10,25638536.632385795
631,180912812.13478036
668,0.0
2,1, 1,21, 0, 8,20.00,30.00,WinterDesignDay
8,-36.2
10,25638536.632385795
631,307381523.67875626
668,0.0
2,1, 1,21, 0, 8,30.00,40.00,WinterDesignDay
8,-36.2
10,25638536.632385795
631,273941976.05577018
668,0.0
2,1, 1,21, 0, 8,40.00,50.00,WinterDesignDay
8,-36.2
10,25638536.632385795
631,273959150.0609127
668,0.0
2,1, 1,21, 0, 8,50.00,60.00,WinterDesignDay
8,-36.2
10,25638536.632385795
631,273301622.43522629
668,0.0
2,1, 1,21, 0, 8, 0.00,60.00,WinterDesignDay
357,22.05221552339155
397,18.000000000000005
437,20.032044884582097
477,20.03213603587083
517,21.997025371670344
2,1, 1,21, 0, 9, 0.00,10.00,WinterDesignDay
8,-36.2
10,54175799.134775448
631,328806872.9485665
668,0.0
2,1, 1,21, 0, 9,10.00,20.00,WinterDesignDay
8,-36.2
10,54175799.134775448
631,193605632.57651199
668,0.0
2,1, 1,21, 0, 9,20.00,30.00,WinterDesignDay
8,-36.2
10,54175799.134775448
631,283713192.11390408
668,0.0
2,1, 1,21, 0, 9,30.00,40.00,WinterDesignDay
8,-36.2
10,54175799.134775448
631,258436950.03027237
668,0.0
2,1, 1,21, 0, 9,40.00,50.00,WinterDesignDay
8,-36.2
10,54175799.134775448
631,258591484.16272626
668,0.0
2,1, 1,21, 0, 9,50.00,60.00,WinterDesignDay
8,-36.2
10,54175799.134775448
631,257613484.51573456
668,0.0
2,1, 1,21, 0, 9, 0.00,60.00,WinterDesignDay
357,22.000000000000939