Program Version,EnergyPlus, Version 8.9.0-eba93e8e1b, YMD=2019.03.20 20:07
1,5,Environment Title[],Latitude[deg],Longitude[deg],Time Zone[],Elevation[m]
2,8,Day of Simulation[],Month[],Day of Month[],DST Indicator[1=yes 0=no],Hour[],StartMinute[],EndMinute[],DayType
3,5,Cumulative Day of Simulation[],Month[],Day of Month[],DST Indicator[1=yes 0=no],DayType  ! When Daily Report Variables Requested
4,2,Cumulative Days of Simulation[],Month[]  ! When Monthly Report Variables Requested
5,1,Cumulative Days of Simulation[] ! When Run Period Report Variables Requested
6,1,Calendar Year of Simulation[] ! When Annual Report Variables Requested
7,9,Environment,Site Outdoor Air Drybulb Temperature [C] !Monthly [Value,Min,Day,Hour,Minute,Max,Day,Hour,Minute]
8,1,Environment,Site Outdoor Air Wetbulb Temperature [C] !TimeStep
357,1,ELECTRICAL/MECHANICAL ROOM-SCH-C-SPACE FUNCTION ZN,Zone Air Temperature [C] !Hourly
358,7,ELECTRICAL/MECHANICAL ROOM-SCH-C-SPACE FUNCTION ZN,Zone Air Relative Humidity [%] !Daily [Value,Min,Hour,Minute,Max,Hour,Minute]
397,1,ELECTRICAL/MECHANICAL ROOM-SCH-D-SPACE FUNCTION ZN,Zone Air Temperature [C] !Hourly
398,7,ELECTRICAL/MECHANICAL ROOM-SCH-D-SPACE FUNCTION ZN,Zone Air Relative Humidity [%] !Daily [Value,Min,Hour,Minute,Max,Hour,Minute]
437,1,FOOD PREPARATION AREA-SPACE FUNCTION ZN,Zone Air Temperature [C] !Hourly
438,7,FOOD PREPARATION AREA-SPACE FUNCTION ZN,Zone Air Relative Humidity [%] !Daily [Value,Min,Hour,Minute,Max,Hour,Minute]
477,1,GUEST ROOM-SPACE FUNCTION ZN,Zone Air Temperature [C] !Hourly
478,7,GUEST ROOM-SPACE FUNCTION ZN,Zone Air Relative Humidity [%] !Daily [Value,Min,Hour,Minute,Max,Hour,Minute]
517,1,LABORATORY - CLASSROOMS-SPACE FUNCTION ZN,Zone Air Temperature [C] !Hourly
518,7,LABORATORY - CLASSROOMS-SPACE FUNCTION ZN,Zone Air Relative Humidity [%] !Daily [Value,Min,Hour,Minute,Max,Hour,Minute]
10,1,Electricity:Facility [J] !TimeStep
668,1,DistrictCooling:Facility [J] !TimeStep
631,1,DistrictHeating:Facility [J] !TimeStep
End of Data Dictionary
1,FORT MCMURRAY AP ANN CLG .4% CONDNS DB=>MWB,  56.65,-111.22,  -7.00, 369.10
2,1, 7,21, 0, 1, 0.00,10.00,SummerDesignDay
8,14.218136923962174
10,27042599.2950809
631,0.0
668,11897961.253774561
2,1, 7,21, 0, 1,10.00,20.00,SummerDesignDay
8,14.171982153293495
10,27042599.2950809
631,0.0
668,11498522.750349794
2,1, 7,21, 0, 1,20.00,30.00,SummerDesignDay
8,14.125744780286427
10,27042599.2950809
631,0.0
668,11114541.79490784
2,1, 7,21, 0, 1,30.00,40.00,SummerDesignDay
8,14.079436086331978
10,27042599.2950809
631,0.0
668,10728860.279439558
2,1, 7,21, 0, 1,40.00,50.00,SummerDesignDay
8,14.033050387896898
10,27042599.2950809
631,0.0
668,10344865.12669963
2,1, 7,21, 0, 1,50.00,60.00,SummerDesignDay
8,13.986581233564835
10,27042599.2950809
631,0.0
668,9962422.159500065
2,1, 7,21, 0, 1, 0.00,60.00,SummerDesignDay
357,22.34719915990894
397,22.385066454259137
437,24.000000000000044
477,23.371876039713198
517,20.217188437204528
2,1, 7,21, 0, 2, 0.00,10.00,SummerDesignDay
8,13.95555882260429
10,16045104.01942119
631,0.0
668,0.0
2,1, 7,21, 0, 2,10.00,20.00,SummerDesignDay
8,13.924507755336454
10,16045104.01942119
631,0.0
668,0.0
2,1, 7,21, 0, 2,20.00,30.00,SummerDesignDay
8,13.893416042989206
10,16045104.01942119
631,0.0
668,0.0
2,1, 7,21, 0, 2,30.00,40.00,SummerDesignDay
8,13.862289589689029
10,16045104.01942119
631,0.0
668,0.0
2,1, 7,21, 0, 2,40.00,50.00,SummerDesignDay
8,13.831134407608739
10,16045104.01942119
631,0.0
668,0.0
2,1, 7,21, 0, 2,50.00,60.00,SummerDesignDay
8,13.799938415548118
10,16045104.01942119
631,0.0
668,0.0
2,1, 7,21, 0, 2, 0.00,60.00,SummerDesignDay
357,21.958456913351467
397,21.911772686611827
437,23.602678163044158
477,22.696173907001567
517,19.610625470896819
2,1, 7,21, 0, 3, 0.00,10.00,SummerDesignDay
8,13.776521671948676
10,5646326.251605419
631,0.0
668,0.0
2,1, 7,21, 0, 3,10.00,20.00,SummerDesignDay
8,13.753085235778466
10,5646326.251605419
631,0.0
668,0.0
2,1, 7,21, 0, 3,20.00,30.00,SummerDesignDay
8,13.729636002354969
10,5646326.251605419
631,0.0
668,0.0
2,1, 7,21, 0, 3,30.00,40.00,SummerDesignDay
8,13.706147375533054
10,5646326.251605419
631,0.0
668,0.0
2,1, 7,21, 0, 3,40.00,50.00,SummerDesignDay
8,13.682651961920304
10,5646326.251605419
631,0.0
668,0.0
2,1, 7,21, 0, 3,50.00,60.00,SummerDesignDay
8,13.659136670643687
10,5646326.251605419
631,0.0
668,0.0
2,1, 7,21, 0, 3, 0.00,60.00,SummerDesignDay
357,21.65264041481738
397,21.592926886231749
437,21.930990073197763
477,22.279508317941365
517,19.23395896002806
2,1, 7,21, 0, 4, 0.00,10.00,SummerDesignDay
8,13.63560137410855
10,5047608.743761483
631,0.0
668,0.0
2,1, 7,21, 0, 4,10.00,20.00,SummerDesignDay
8,13.612040802606578
10,5047608.743761483
631,0.0
668,0.0
2,1, 7,21, 0, 4,20.00,30.00,SummerDesignDay
8,13.58846620506876
10,5047608.743761483
631,0.0
668,0.0
2,1, 7,21, 0, 4,30.00,40.00,SummerDesignDay
8,13.56487178447336
10,5047608.743761483
631,0.0
668,0.0
2,1, 7,21, 0, 4,40.00,50.00,SummerDesignDay
8,13.541257354069103
10,5047608.743761483
631,0.0
668,0.0
2,1, 7,21, 0, 4,50.00,60.00,SummerDesignDay
8,13.517617463812285
10,5047608.743761483
631,0.0
668,0.0
2,1, 7,21, 0, 4, 0.00,60.00,SummerDesignDay
357,21.265658054941424
397,21.21462749176129
437,20.35900255515849
477,21.77760250610309
517,18.879584604888597
2,1, 7,21, 0, 5, 0.00,10.00,SummerDesignDay
8,13.50185415824011
10,5047608.743761483
631,0.0
668,0.0
2,1, 7,21, 0, 5,10.00,20.00,SummerDesignDay
8,13.486076034032447
10,5047608.743761483
631,0.0
668,0.0
2,1, 7,21, 0, 5,20.00,30.00,SummerDesignDay
8,13.470289340350983
10,5047608.743761483
631,0.0
668,0.0
2,1, 7,21, 0, 5,30.00,40.00,SummerDesignDay
8,13.454493322631063
10,5047608.743761483
631,0.0
668,0.0
2,1, 7,21, 0, 5,40.00,50.00,SummerDesignDay
8,13.438688835118548
10,5047608.743761483
631,0.0
668,0.0
2,1, 7,21, 0, 5,50.00,60.00,SummerDesignDay
8,13.422888173889437
10,5047608.743761483
631,0.0
668,0.0
2,1, 7,21, 0, 5, 0.00,60.00,SummerDesignDay
357,20.943218466292849
397,20.909597238922858
437,19.79297255404531
477,21.38823289380881
517,18.60059267239878
2,1, 7,21, 0, 6, 0.00,10.00,SummerDesignDay
8,13.438688835118548
10,5047608.743761483
631,0.0
668,0.0
2,1, 7,21, 0, 6,10.00,20.00,SummerDesignDay
8,13.454493322631063
10,5047608.743761483
631,0.0
668,0.0
2,1, 7,21, 0, 6,20.00,30.00,SummerDesignDay
8,13.470289340350983
10,5047608.743761483
631,0.0
668,0.0
2,1, 7,21, 0, 6,30.00,40.00,SummerDesignDay
8,13.486076034032447
10,5047608.743761483
631,0.0
668,0.0
2,1, 7,21, 0, 6,40.00,50.00,SummerDesignDay
8,13.50185415824011
10,5047608.743761483
631,0.0
668,0.0
2,1, 7,21, 0, 6,50.00,60.00,SummerDesignDay
8,13.517617463812285
10,5047608.743761483
631,0.0
668,0.0
2,1, 7,21, 0, 6, 0.00,60.00,SummerDesignDay
357,20.72070642056154
397,20.704428118338709
437,19.56172207238229
477,21.17809086244075
517,18.47957550691159
2,1, 7,21, 0, 7, 0.00,10.00,SummerDesignDay
8,13.572736920571789
10,5646326.251605419
631,0.0
668,0.0
2,1, 7,21, 0, 7,10.00,20.00,SummerDesignDay
8,13.627748229152554
10,5646326.251605419
631,0.0
668,0.0
2,1, 7,21, 0, 7,20.00,30.00,SummerDesignDay
8,13.682651961920304
10,5646326.251605419
631,0.0
668,0.0
2,1, 7,21, 0, 7,30.00,40.00,SummerDesignDay
8,13.737448093244995
10,5646326.251605419
631,0.0
668,0.0
2,1, 7,21, 0, 7,40.00,50.00,SummerDesignDay
8,13.792137011831216
10,5646326.251605419
631,0.0
668,0.0
2,1, 7,21, 0, 7,50.00,60.00,SummerDesignDay
8,13.846719282840333
10,5646326.251605419
631,0.0
668,0.0
2,1, 7,21, 0, 7, 0.00,60.00,SummerDesignDay
357,20.641500767157678
397,20.637144534383706
437,19.65409655536353
477,21.255297517725976
517,18.68779730547957
2,1, 7,21, 0, 8, 0.00,10.00,SummerDesignDay
8,13.978831900527043
10,6843761.267293294
631,17773339.966169418
668,0.0
2,1, 7,21, 0, 8,10.00,20.00,SummerDesignDay
8,14.110321014287419
10,6843761.267293294
631,874651.0681108962
668,0.0
2,1, 7,21, 0, 8,20.00,30.00,SummerDesignDay
8,14.241191509616986
10,6843761.267293294
631,6974292.841391627
668,0.0
2,1, 7,21, 0, 8,30.00,40.00,SummerDesignDay
8,14.371447531304272
10,6843761.267293294
631,0.0
668,0.0
2,1, 7,21, 0, 8,40.00,50.00,SummerDesignDay
8,14.501093766564925
10,6843761.267293294
631,0.0
668,0.0
2,1, 7,21, 0, 8,50.00,60.00,SummerDesignDay
8,14.630134792273804
10,6843761.267293294
631,0.0
668,0.0
2,1, 7,21, 0, 8, 0.00,60.00,SummerDesignDay
357,20.76011489066042
397,20.75724554236915
437,20.163978902346299
477,21.655494086355757
517,20.115777486600736
2,1, 7,21, 0, 9, 0.00,10.00,SummerDesignDay
8,14.773641492809972
10,18369073.293289104
631,67093950.23791152
668,0.0
2,1, 7,21, 0, 9,10.00,20.00,SummerDesignDay
8,14.91640948124148
10,18369073.293289104
631,0.0
668,0.0
2,1, 7,21, 0, 9,20.00,30.00,SummerDesignDay
8,15.05843890714102
10,18369073.293289104
631,0.0
668,0.0
2,1, 7,21, 0, 9,30.00,40.00,SummerDesignDay
8,15.199735893563798
10,18369073.293289104
631,0.0
668,0.0
2,1, 7,21, 0, 9,40.00,50.00,SummerDesignDay
8,15.340306256439395
10,18369073.293289104
631,0.0
668,0.0
2,1, 7,21, 0, 9,50.00,60.00,SummerDesignDay
8,15.48015101768072
10,18369073.293289104
631,0.0
668,0.0
2,1, 7,21, 0, 9, 0.00,60.00,SummerDesignDay
357,22.430461900847758
397,22.304979371781273
437,21.168095144632607
477,22.339688603496254
517,22.424549317744594
2,1, 7,21, 0,10, 0.00,10.00,SummerDesignDay
8,15.60467292907716
10,54456283.40141442
631,1315604.1257268987
668,5867169.582135552
2,1, 7,21, 0,10,10.00,20.00,SummerDesignDay
8,15.72862731650033
10,54456283.40141442
631,0.0
668,17568668.47878221
2,1, 7,21, 0,10,20.00,30.00,SummerDesignDay
8,15.852017409284228
10,54456283.40141442
631,0.0
668,24944309.30666136
2,1, 7,21, 0,10,30.00,40.00,SummerDesignDay
8,15.974848118364367
10,54456283.40141442
631,0.0
668,31028786.56564372
2,1, 7,21, 0,10,40.00,50.00,SummerDesignDay
8,16.097123145563505
10,54456283.40141442
631,0.0
668,35066445.49133124
2,1, 7,21, 0,10,50.00,60.00,SummerDesignDay
8,16.218846351168599
10,54456283.40141442
631,0.0
668,41394528.212404157
2,1, 7,21, 0,10, 0.00,60.00,SummerDesignDay
357,23.206528543761494
397,23.103720026153956
437,23.47651219382936
477,23.111829972139334
517,23.915114780115699
2,1, 7,21, 0,11, 0.00,10.00,SummerDesignDay
8,16.325793027093189
10,59655672.2853223
631,0.0
668,48405872.57633437
2,1, 7,21, 0,11,10.00,20.00,SummerDesignDay
8,16.432322158488288
10,59655672.2853223
631,0.0
668,61485471.57315166
2,1, 7,21, 0,11,20.00,30.00,SummerDesignDay
8,16.538424180249178
10,59655672.2853223
631,0.0
668,64928843.56209635
2,1, 7,21, 0,11,30.00,40.00,SummerDesignDay
8,16.644108396469087
10,59655672.2853223
631,0.0
668,69576007.240475
2,1, 7,21, 0,11,40.00,50.00,SummerDesignDay
8,16.749376736593655
10,59655672.2853223
631,0.0
668,70930288.3523993
2,1, 7,21, 0,11,50.00,60.00,SummerDesignDay
8,16.854232613237156
10,59655672.2853223
631,0.0
668,74124236.52940306
2,1, 7,21, 0,11, 0.00,60.00,SummerDesignDay
357,23.98210957918243
397,23.97974146772438
437,23.999999946511776
477,23.900883541949555
517,23.99999999982664
2,1, 7,21, 0,12, 0.00,10.00,SummerDesignDay
8,16.92390823520069
10,64256343.66138626
631,0.0
668,80333401.16365496
2,1, 7,21, 0,12,10.00,20.00,SummerDesignDay
8,16.99340178950456
10,64256343.66138626
631,0.0
668,82452338.25223974
2,1, 7,21, 0,12,20.00,30.00,SummerDesignDay
8,17.06272006743463
10,64256343.66138626
631,0.0
668,84124205.21367948
2,1, 7,21, 0,12,30.00,40.00,SummerDesignDay
8,17.131853229172639
10,64256343.66138626
631,0.0
668,85791153.2153514
2,1, 7,21, 0,12,40.00,50.00,SummerDesignDay
8,17.200807172194087
10,64256343.66138626
631,0.0
668,87383414.91880055
2,1, 7,21, 0,12,50.00,60.00,SummerDesignDay
8,17.269582116758607
10,64256343.66138626
631,0.0
668,88945752.03352309
2,1, 7,21, 0,12, 0.00,60.00,SummerDesignDay
357,23.999999999997333
397,23.99999999999717
437,24.0
477,23.99999999521255
517,24.00000000000004
2,1, 7,21, 0,13, 0.00,10.00,SummerDesignDay
8,17.32447360221357
10,63657626.15354232
631,0.0
668,90906227.36957218
2,1, 7,21, 0,13,10.00,20.00,SummerDesignDay
8,17.379251291230806
10,63657626.15354232
631,0.0
668,92088306.21478328
2,1, 7,21, 0,13,20.00,30.00,SummerDesignDay
8,17.433921312061729
10,63657626.15354232
631,0.0
668,93258708.20687118
2,1, 7,21, 0,13,30.00,40.00,SummerDesignDay
8,17.488473222557489
10,63657626.15354232
631,0.0
668,94446543.6765155
2,1, 7,21, 0,13,40.00,50.00,SummerDesignDay
8,17.542913447755134
10,63657626.15354232
631,0.0
668,95613354.13751149
2,1, 7,21, 0,13,50.00,60.00,SummerDesignDay
8,17.59724609886134
10,63657626.15354232
631,0.0
668,96769215.20897553
2,1, 7,21, 0,13, 0.00,60.00,SummerDesignDay
357,24.00000000000001
397,24.0
437,24.0
477,24.000000000000005
517,23.999999999999987
2,1, 7,21, 0,14, 0.00,10.00,SummerDesignDay
8,17.6311450462694
10,63657626.15354232
631,0.0
668,97138999.51363866
2,1, 7,21, 0,14,10.00,20.00,SummerDesignDay
8,17.665000449016245
10,63657626.15354232
631,0.0
668,97837998.86227763
2,1, 7,21, 0,14,20.00,30.00,SummerDesignDay
8,17.698812743128934
10,63657626.15354232
631,0.0
668,98549642.36523807
2,1, 7,21, 0,14,30.00,40.00,SummerDesignDay
8,17.732582050940107
10,63657626.15354232
631,0.0
668,99255663.78232967
2,1, 7,21, 0,14,40.00,50.00,SummerDesignDay
8,17.766307345121004
10,63657626.15354232
631,0.0
668,99960030.79884552
2,1, 7,21, 0,14,50.00,60.00,SummerDesignDay
8,17.79999023167558
10,63657626.15354232
631,0.0
668,100664702.44146869
2,1, 7,21, 0,14, 0.00,60.00,SummerDesignDay
357,24.00000000000001
397,24.000000000000005
437,23.999999999999998
477,24.0
517,24.00000000000003
2,1, 7,21, 0,15, 0.00,10.00,SummerDesignDay
8,17.79999023167558
10,63657626.15354232
631,0.0
668,99601901.68745175
2,1, 7,21, 0,15,10.00,20.00,SummerDesignDay
8,17.79999023167558
10,63657626.15354232
631,0.0
668,99557507.29804167
2,1, 7,21, 0,15,20.00,30.00,SummerDesignDay
8,17.79999023167558
10,63657626.15354232
631,0.0
668,99565236.97104422
2,1, 7,21, 0,15,30.00,40.00,SummerDesignDay
8,17.79999023167558
10,63657626.15354232
631,0.0
668,99567713.17452127
2,1, 7,21, 0,15,40.00,50.00,SummerDesignDay
8,17.79999023167558
10,63657626.15354232
631,0.0
668,99569197.57606599
2,1, 7,21, 0,15,50.00,60.00,SummerDesignDay
8,17.79999023167558
10,63657626.15354232
631,0.0
668,99570429.3660003
2,1, 7,21, 0,15, 0.00,60.00,SummerDesignDay
357,24.0
397,24.0
437,24.000000000000047
477,24.0
517,24.000000000000019
2,1, 7,21, 0,16, 0.00,10.00,SummerDesignDay
8,17.759562446305357
10,63657626.15354232
631,0.0
668,97708188.17673972
2,1, 7,21, 0,16,10.00,20.00,SummerDesignDay
8,17.71907809634183
10,63657626.15354232
631,0.0
668,96822620.47559345
2,1, 7,21, 0,16,20.00,30.00,SummerDesignDay
8,17.67853788661001
10,63657626.15354232
631,0.0
668,95993805.91628155
2,1, 7,21, 0,16,30.00,40.00,SummerDesignDay
8,17.63791796367351
10,63657626.15354232
631,0.0
668,95159391.16662669
2,1, 7,21, 0,16,40.00,50.00,SummerDesignDay
8,17.59724609886134
10,63657626.15354232
631,0.0
668,94324524.82217878
2,1, 7,21, 0,16,50.00,60.00,SummerDesignDay
8,17.55650676726033
10,63657626.15354232
631,0.0
668,93491256.75659387
2,1, 7,21, 0,16, 0.00,60.00,SummerDesignDay
357,24.000000000000005
397,24.00000000000001
437,24.00000000000001
477,24.0
517,23.99999999999999
2,1, 7,21, 0,17, 0.00,10.00,SummerDesignDay
8,17.50209486331892
10,56657583.1107053
631,0.0
668,86437088.56493938
2,1, 7,21, 0,17,10.00,20.00,SummerDesignDay
8,17.447570789624618
10,56657583.1107053
631,0.0
668,84809936.9645333
2,1, 7,21, 0,17,20.00,30.00,SummerDesignDay
8,17.392929544208135
10,56657583.1107053
631,0.0
668,83641808.63215757
2,1, 7,21, 0,17,30.00,40.00,SummerDesignDay
8,17.33818013976614
10,56657583.1107053
631,0.0
668,82426174.98715213
2,1, 7,21, 0,17,40.00,50.00,SummerDesignDay
8,17.283317298559309
10,56657583.1107053
631,0.0
668,81237267.63420955
2,1, 7,21, 0,17,50.00,60.00,SummerDesignDay
8,17.22833552437677
10,56657583.1107053
631,0.0
668,80059955.76451533
2,1, 7,21, 0,17, 0.00,60.00,SummerDesignDay
357,24.0
397,24.000000000000005
437,23.99999999999999
477,24.0
517,23.999999999999976
2,1, 7,21, 0,18, 0.00,10.00,SummerDesignDay
8,17.159453019160176
10,46447874.0295771
631,0.0
668,70874833.06729128
2,1, 7,21, 0,18,10.00,20.00,SummerDesignDay
8,17.090391773337136
10,46447874.0295771
631,0.0
668,68318788.96310263
2,1, 7,21, 0,18,20.00,30.00,SummerDesignDay
8,17.021151077964786
10,46447874.0295771
631,0.0
668,66494512.60062528
2,1, 7,21, 0,18,30.00,40.00,SummerDesignDay
8,16.951729380464653
10,46447874.0295771
631,0.0
668,64628507.81107988
2,1, 7,21, 0,18,40.00,50.00,SummerDesignDay
8,16.882126503829249
10,46447874.0295771
631,0.0
668,62810351.72140448
2,1, 7,21, 0,18,50.00,60.00,SummerDesignDay
8,16.812341807494034
10,46447874.0295771
631,0.0
668,60994953.710856977
2,1, 7,21, 0,18, 0.00,60.00,SummerDesignDay
357,24.0
397,24.0
437,24.000000000000026
477,24.000000000000005
517,24.00000000000001
2,1, 7,21, 0,19, 0.00,10.00,SummerDesignDay
8,16.707321072823203
10,46447874.0295771
631,0.0
668,58767675.912157598
2,1, 7,21, 0,19,10.00,20.00,SummerDesignDay
8,16.601881826644556
10,46447874.0295771
631,0.0
668,56208374.90765785
2,1, 7,21, 0,19,20.00,30.00,SummerDesignDay
8,16.496030555252849
10,46447874.0295771
631,0.0
668,53622482.6247071
2,1, 7,21, 0,19,30.00,40.00,SummerDesignDay
8,16.389760181474104
10,46447874.0295771
631,0.0
668,51055767.47184506
2,1, 7,21, 0,19,40.00,50.00,SummerDesignDay
8,16.283067654262039
10,46447874.0295771
631,0.0
668,48498545.44719751
2,1, 7,21, 0,19,50.00,60.00,SummerDesignDay
8,16.17595057957811
10,46447874.0295771
631,0.0
668,45945950.31257042
2,1, 7,21, 0,19, 0.00,60.00,SummerDesignDay
357,24.0
397,24.0
437,24.000000000000026
477,24.0
517,24.000000000000005
2,1, 7,21, 0,20, 0.00,10.00,SummerDesignDay
8,16.097123145563505
10,52038004.86597261
631,0.0
668,52004308.367519099
2,1, 7,21, 0,20,10.00,20.00,SummerDesignDay
8,16.018070242471564
10,52038004.86597261
631,0.0
668,50806865.54881895
2,1, 7,21, 0,20,20.00,30.00,SummerDesignDay
8,15.938779752340516
10,52038004.86597261
631,0.0
668,48948983.72562072
2,1, 7,21, 0,20,30.00,40.00,SummerDesignDay
8,15.85926152575189
10,52038004.86597261
631,0.0
668,47175296.22998309
2,1, 7,21, 0,20,40.00,50.00,SummerDesignDay
8,15.779503718563929
10,52038004.86597261
631,0.0
668,45367879.1538382
2,1, 7,21, 0,20,50.00,60.00,SummerDesignDay
8,15.699515709672767
10,52038004.86597261
631,0.0
668,43547716.9504421
2,1, 7,21, 0,20, 0.00,60.00,SummerDesignDay
357,24.000000000000005
397,24.000000000000005
437,23.99999999999997
477,24.000000000000005
517,24.00000000000001
2,1, 7,21, 0,21, 0.00,10.00,SummerDesignDay
8,15.63389147320404
10,52395134.60749356
631,0.0
668,42969082.796206999
2,1, 7,21, 0,21,10.00,20.00,SummerDesignDay
8,15.56810827419793
10,52395134.60749356
631,0.0
668,41582299.00488261
2,1, 7,21, 0,21,20.00,30.00,SummerDesignDay
8,15.502170882753524
10,52395134.60749356
631,0.0
668,40037415.59484596
2,1, 7,21, 0,21,30.00,40.00,SummerDesignDay
8,15.436068032613852
10,52395134.60749356
631,0.0
668,38511358.44628313
2,1, 7,21, 0,21,40.00,50.00,SummerDesignDay
8,15.369804371206009
10,52395134.60749356
631,0.0
668,36984345.12073934
2,1, 7,21, 0,21,50.00,60.00,SummerDesignDay
8,15.303384603594449
10,52395134.60749356
631,0.0
668,35453352.71679567
2,1, 7,21, 0,21, 0.00,60.00,SummerDesignDay
357,24.0
397,24.0
437,24.000000000000015
477,23.999999999999998
517,24.00000000000001
2,1, 7,21, 0,22, 0.00,10.00,SummerDesignDay
8,15.236797685071274
10,49212478.3815863
631,0.0
668,33198030.56229375
2,1, 7,21, 0,22,10.00,20.00,SummerDesignDay
8,15.170047891787942
10,49212478.3815863
631,0.0
668,31804040.362827336
2,1, 7,21, 0,22,20.00,30.00,SummerDesignDay
8,15.103134826860483
10,49212478.3815863
631,0.0
668,30320122.094288663
2,1, 7,21, 0,22,30.00,40.00,SummerDesignDay
8,15.036063385178485
10,49212478.3815863
631,0.0
668,28838743.133973577
2,1, 7,21, 0,22,40.00,50.00,SummerDesignDay
8,14.968821767219835
10,49212478.3815863
631,0.0
668,27354360.749902756
2,1, 7,21, 0,22,50.00,60.00,SummerDesignDay
8,14.90141525878635
10,49212478.3815863
631,0.0
668,25873544.418592566
2,1, 7,21, 0,22, 0.00,60.00,SummerDesignDay
357,23.696415371512079
397,24.0
437,24.00000000000003
477,24.0
517,24.00000000000003
2,1, 7,21, 0,23, 0.00,10.00,SummerDesignDay
8,14.848873673278373
10,37181407.61870127
631,0.0
668,19927738.025575304
2,1, 7,21, 0,23,10.00,20.00,SummerDesignDay
8,14.796237168136719
10,37181407.61870127
631,0.0
668,19359545.617454269
2,1, 7,21, 0,23,20.00,30.00,SummerDesignDay
8,14.743494321455645
10,37181407.61870127
631,0.0
668,18859067.418962048
2,1, 7,21, 0,23,30.00,40.00,SummerDesignDay
8,14.690649975253665
10,37181407.61870127
631,0.0
668,18349212.57629548
2,1, 7,21, 0,23,40.00,50.00,SummerDesignDay
8,14.637704281233117
10,37181407.61870127
631,0.0
668,17843554.99447142
2,1, 7,21, 0,23,50.00,60.00,SummerDesignDay
8,14.584656914839757
10,37181407.61870127
631,0.0
668,17342376.02805903
2,1, 7,21, 0,23, 0.00,60.00,SummerDesignDay
357,23.213304077577793
397,23.790120762447648
437,24.000000000000033
477,24.000000000000005
517,23.040367071660766
2,1, 7,21, 0,24, 0.00,10.00,SummerDesignDay
8,14.531507212058875
10,28838751.81861271
631,0.0
668,14979103.89663217
2,1, 7,21, 0,24,10.00,20.00,SummerDesignDay
8,14.47825496413355
10,28838751.81861271
631,0.0
668,14488529.3507219
2,1, 7,21, 0,24,20.00,30.00,SummerDesignDay
8,14.4249000133173
10,28838751.81861271
631,0.0
668,14061046.323178677
2,1, 7,21, 0,24,30.00,40.00,SummerDesignDay
8,14.371447531304272
10,28838751.81861271
631,0.0
668,13628501.671447183
2,1, 7,21, 0,24,40.00,50.00,SummerDesignDay
8,14.31788619902223
10,28838751.81861271
631,0.0
668,13199008.88650215
2,1, 7,21, 0,24,50.00,60.00,SummerDesignDay
8,14.264220970176066
10,28838751.81861271
631,0.0
668,12771157.642896185
2,1, 7,21, 0,24, 0.00,60.00,SummerDesignDay
357,22.791942035310524
397,23.111469489621397
437,24.00000000000003
477,23.933020836157256
517,21.30979192095544
3,1, 7,21, 0,SummerDesignDay
358,46.545030467245577,41.13006720265837,20,10,55.14095074278361, 7,40
398,46.344561863632069,41.111043850935569,19,30,55.052499382271019, 7,40
438,46.4988349940433,40.58108723175185,17,60,59.30266341263493, 6,60
478,48.5807337996201,41.68832105042548,16,60,58.14649035950188, 6,60
518,49.38069212008447,40.7495583324213,18,30,63.417635564774048, 6,30
4,1, 7
7,22.2505,16.5,21, 5,60,28.9,21,14,60
1,FORT MCMURRAY AP ANN HTG 99.6% CONDNS DB,  56.65,-111.22,  -7.00, 369.10
2,1, 1,21, 0, 1, 0.00,10.00,WinterDesignDay
8,-36.2
10,27042599.2950809
631,321802331.24282088
668,0.0
2,1, 1,21, 0, 1,10.00,20.00,WinterDesignDay
8,-36.2
10,27042599.2950809
631,322776291.79739108
668,0.0
2,1, 1,21, 0, 1,20.00,30.00,WinterDesignDay
8,-36.2
10,27042599.2950809
631,323161029.3006487
668,0.0
2,1, 1,21, 0, 1,30.00,40.00,WinterDesignDay
8,-36.2
10,27042599.2950809
631,323499889.4818208
668,0.0
2,1, 1,21, 0, 1,40.00,50.00,WinterDesignDay
8,-36.2
10,27042599.2950809
631,323754629.96946886
668,0.0
2,1, 1,21, 0, 1,50.00,60.00,WinterDesignDay
8,-36.2
10,27042599.2950809
631,323947189.4233339
668,0.0
2,1, 1,21, 0, 1, 0.00,60.00,WinterDesignDay
357,18.000000000000005
397,18.00000000364896
437,22.000000000000019
477,22.0
517,18.00000000003029
2,1, 1,21, 0, 2, 0.00,10.00,WinterDesignDay
8,-36.2
10,16045104.01942119
631,291083167.89105597
668,0.0
2,1, 1,21, 0, 2,10.00,20.00,WinterDesignDay
8,-36.2
10,16045104.01942119
631,309545589.66852429
668,0.0
2,1, 1,21, 0, 2,20.00,30.00,WinterDesignDay
8,-36.2
10,16045104.01942119
631,320600683.26080927
668,0.0
2,1, 1,21, 0, 2,30.00,40.00,WinterDesignDay
8,-36.2
10,16045104.01942119
631,325796868.45693728
668,0.0
2,1, 1,21, 0, 2,40.00,50.00,WinterDesignDay
8,-36.2
10,16045104.01942119
631,325230386.7740608
668,0.0
2,1, 1,21, 0, 2,50.00,60.00,WinterDesignDay
8,-36.2
10,16045104.01942119
631,326741181.4436002
668,0.0
2,1, 1,21, 0, 2, 0.00,60.00,WinterDesignDay
357,18.0
397,18.000000000000005
437,22.00000000000001
477,18.363043711477134
517,18.0
2,1, 1,21, 0, 3, 0.00,10.00,WinterDesignDay
8,-36.2
10,5646326.251605419
631,286512463.1450729
668,0.0
2,1, 1,21, 0, 3,10.00,20.00,WinterDesignDay
8,-36.2
10,5646326.251605419
631,311161029.1777819
668,0.0
2,1, 1,21, 0, 3,20.00,30.00,WinterDesignDay
8,-36.2
10,5646326.251605419
631,320108135.2397907
668,0.0
2,1, 1,21, 0, 3,30.00,40.00,WinterDesignDay
8,-36.2
10,5646326.251605419
631,322058099.1327908
668,0.0
2,1, 1,21, 0, 3,40.00,50.00,WinterDesignDay
8,-36.2
10,5646326.251605419
631,324476858.51082828
668,0.0
2,1, 1,21, 0, 3,50.00,60.00,WinterDesignDay
8,-36.2
10,5646326.251605419
631,325012908.2940998
668,0.0
2,1, 1,21, 0, 3, 0.00,60.00,WinterDesignDay
357,18.0
397,18.0
437,18.112860196142326
477,18.000000000000779
517,18.000000000000008
2,1, 1,21, 0, 4, 0.00,10.00,WinterDesignDay
8,-36.2
10,5047608.743761483
631,325826424.7383455
668,0.0
2,1, 1,21, 0, 4,10.00,20.00,WinterDesignDay
8,-36.2
10,5047608.743761483
631,326169199.7178123
668,0.0
2,1, 1,21, 0, 4,20.00,30.00,WinterDesignDay
8,-36.2
10,5047608.743761483
631,326413368.55764129
668,0.0
2,1, 1,21, 0, 4,30.00,40.00,WinterDesignDay
8,-36.2
10,5047608.743761483
631,326606344.60355898
668,0.0
2,1, 1,21, 0, 4,40.00,50.00,WinterDesignDay
8,-36.2
10,5047608.743761483
631,326762905.14883747
668,0.0
2,1, 1,21, 0, 4,50.00,60.00,WinterDesignDay
8,-36.2
10,5047608.743761483
631,326881743.94320037
668,0.0
2,1, 1,21, 0, 4, 0.00,60.00,WinterDesignDay
357,18.000000000000005
397,18.0
437,18.000000000025865
477,18.00000000000001
517,18.000000000000005
2,1, 1,21, 0, 5, 0.00,10.00,WinterDesignDay
8,-36.2
10,5047608.743761483
631,326980438.4835129
668,0.0
2,1, 1,21, 0, 5,10.00,20.00,WinterDesignDay
8,-36.2
10,5047608.743761483
631,327054407.6233095
668,0.0
2,1, 1,21, 0, 5,20.00,30.00,WinterDesignDay
8,-36.2
10,5047608.743761483
631,327117230.1250828
668,0.0
2,1, 1,21, 0, 5,30.00,40.00,WinterDesignDay
8,-36.2
10,5047608.743761483
631,327162381.71561077
668,0.0
2,1, 1,21, 0, 5,40.00,50.00,WinterDesignDay
8,-36.2
10,5047608.743761483
631,327201694.89608976
668,0.0
2,1, 1,21, 0, 5,50.00,60.00,WinterDesignDay
8,-36.2
10,5047608.743761483
631,327237553.5699935
668,0.0
2,1, 1,21, 0, 5, 0.00,60.00,WinterDesignDay
357,18.000000000000005
397,18.000000000000005
437,18.00000000000001
477,18.000000000000015
517,18.000000000000005
2,1, 1,21, 0, 6, 0.00,10.00,WinterDesignDay
8,-36.2
10,5047608.743761483
631,327268550.1742276
668,0.0
2,1, 1,21, 0, 6,10.00,20.00,WinterDesignDay
8,-36.2
10,5047608.743761483
631,327294846.0893332
668,0.0
2,1, 1,21, 0, 6,20.00,30.00,WinterDesignDay
8,-36.2
10,5047608.743761483
631,327317034.2210587
668,0.0
2,1, 1,21, 0, 6,30.00,40.00,WinterDesignDay
8,-36.2
10,5047608.743761483
631,327335760.24721637
668,0.0
2,1, 1,21, 0, 6,40.00,50.00,WinterDesignDay
8,-36.2
10,5047608.743761483
631,327351606.9026098
668,0.0
2,1, 1,21, 0, 6,50.00,60.00,WinterDesignDay
8,-36.2
10,5047608.743761483
631,327361190.01487508
668,0.0
2,1, 1,21, 0, 6, 0.00,60.00,WinterDesignDay
357,18.0
397,18.000000000000005
437,18.0
477,18.00000000000001
517,18.000000000000005
2,1, 1,21, 0, 7, 0.00,10.00,WinterDesignDay
8,-36.2
10,5646326.251605419
631,326984398.65705636
668,0.0
2,1, 1,21, 0, 7,10.00,20.00,WinterDesignDay
8,-36.2
10,5646326.251605419
631,326934923.2995808
668,0.0
2,1, 1,21, 0, 7,20.00,30.00,WinterDesignDay
8,-36.2
10,5646326.251605419
631,326938171.45951357
668,0.0
2,1, 1,21, 0, 7,30.00,40.00,WinterDesignDay
8,-36.2
10,5646326.251605419
631,326937749.7400538
668,0.0
2,1, 1,21, 0, 7,40.00,50.00,WinterDesignDay
8,-36.2
10,5646326.251605419
631,326936625.9893497
668,0.0
2,1, 1,21, 0, 7,50.00,60.00,WinterDesignDay
8,-36.2
10,5646326.251605419
631,326936063.97316798
668,0.0
2,1, 1,21, 0, 7, 0.00,60.00,WinterDesignDay
357,18.000000000000005
397,18.000000000000005
437,18.000000000000005
477,18.00000000000001
517,18.0
2,1, 1,21, 0, 8, 0.00,10.00,WinterDesignDay
8,-36.2
10,6843761.267293294
631,440383506.17632529
668,0.0
2,1, 1,21, 0, 8,10.00,20.00,WinterDesignDay
8,-36.2
10,6843761.267293294
631,251757294.62977378
668,0.0
2,1, 1,21, 0, 8,20.00,30.00,WinterDesignDay
8,-36.2
10,6843761.267293294
631,373904172.9620935
668,0.0
2,1, 1,21, 0, 8,30.00,40.00,WinterDesignDay
8,-36.2
10,6843761.267293294
631,346960245.52707806
668,0.0
2,1, 1,21, 0, 8,40.00,50.00,WinterDesignDay
8,-36.2
10,6843761.267293294
631,344857155.21102038
668,0.0
2,1, 1,21, 0, 8,50.00,60.00,WinterDesignDay
8,-36.2
10,6843761.267293294
631,344912342.48164597
668,0.0
2,1, 1,21, 0, 8, 0.00,60.00,WinterDesignDay
357,20.062272144080216
397,20.061910254696273
437,18.000000000000005
477,20.02291631090823
517,19.997152775711407
2,1, 1,21, 0, 9, 0.00,10.00,WinterDesignDay
8,-36.2
10,18369073.293289104
631,472164764.2080728
668,0.0
2,1, 1,21, 0, 9,10.00,20.00,WinterDesignDay
8,-36.2
10,18369073.293289104
631,247672272.5052591
668,0.0
2,1, 1,21, 0, 9,20.00,30.00,WinterDesignDay
8,-36.2
10,18369073.293289104
631,400566234.543234
668,0.0
2,1, 1,21, 0, 9,30.00,40.00,WinterDesignDay
8,-36.2
10,18369073.293289104
631,359915769.11750438
668,0.0
2,1, 1,21, 0, 9,40.00,50.00,WinterDesignDay
8,-36.2
10,18369073.293289104
631,360257500.6703907
668,0.0
2,1, 1,21, 0, 9,50.00,60.00,WinterDesignDay
8,-36.2
10,18369073.293289104
631,359281226.12514939
668,0.0
2,1, 1,21, 0, 9, 0.00,60.00,WinterDesignDay
357,22.045723754983709
397,22.041582049091386
437,19.999854184110949
477,22.020618683550614
517,21.996998965252556
2,1, 1,21, 0,10, 0.00,10.00,WinterDesignDay
8,-36.2
10,54456283.40141442
631,359603469.156535
668,0.0
2,1, 1,21, 0,10,10.00,20.00,WinterDesignDay
8,-36.2
10,54456283.40141442
631,314173532.1356031
668,0.0
2,1, 1,21, 0,10,20.00,30.00,WinterDesignDay
8,-36.2
10,54456283.40141442
631,337963563.2270329
668,0.0
2,1, 1,21, 0,10,30.00,40.00,WinterDesignDay
8,-36.2
10,54456283.40141442
631,331327913.19527509
668,0.0
2,1, 1,21, 0,10,40.00,50.00,WinterDesignDay
8,-36.2
10,54456283.40141442
631,330469256.34718778
668,0.0
2,1, 1,21, 0,10,50.00,60.00,WinterDesignDay
8,-36.2
10,54456283.40141442
631,329731168.5629574
668,0.0
2,1, 1,21, 0,10, 0.00,60.00,WinterDesignDay
357,22.000000000000289
397,22.0
437,22.00020303964591
477,22.0
517,22.000000000000019
2,1, 1,21, 0,11, 0.00,10.00,WinterDesignDay
8,-36.2
10,59655672.2853223
631,325339226.7014519
668,0.0
2,1, 1,21, 0,11,10.00,20.00,WinterDesignDay
8,-36.2
10,59655672.2853223
631,324355893.20176818
668,0.0