Program Version,EnergyPlus, Version 8.9.0-eba93e8e1b, YMD=2019.03.06 15:04
1,5,Environment Title[],Latitude[deg],Longitude[deg],Time Zone[],Elevation[m]
2,8,Day of Simulation[],Month[],Day of Month[],DST Indicator[1=yes 0=no],Hour[],StartMinute[],EndMinute[],DayType
3,5,Cumulative Day of Simulation[],Month[],Day of Month[],DST Indicator[1=yes 0=no],DayType  ! When Daily Report Variables Requested
4,2,Cumulative Days of Simulation[],Month[]  ! When Monthly Report Variables Requested
5,1,Cumulative Days of Simulation[] ! When Run Period Report Variables Requested
6,1,Calendar Year of Simulation[] ! When Annual Report Variables Requested
7,9,Environment,Site Outdoor Air Drybulb Temperature [C] !Monthly [Value,Min,Day,Hour,Minute,Max,Day,Hour,Minute]
8,1,Environment,Site Outdoor Air Wetbulb Temperature [C] !TimeStep
547,1,WHOLEBUILDING-AUTOMOTIVE FACILITY ZN,Zone Air Temperature [C] !Hourly
548,7,WHOLEBUILDING-AUTOMOTIVE FACILITY ZN,Zone Air Relative Humidity [%] !Daily [Value,Min,Hour,Minute,Max,Hour,Minute]
587,1,WHOLEBUILDING-CONVENTION CENTRE ZN,Zone Air Temperature [C] !Hourly
588,7,WHOLEBUILDING-CONVENTION CENTRE ZN,Zone Air Relative Humidity [%] !Daily [Value,Min,Hour,Minute,Max,Hour,Minute]
627,1,WHOLEBUILDING-COURTHOUSE ZN,Zone Air Temperature [C] !Hourly
628,7,WHOLEBUILDING-COURTHOUSE ZN,Zone Air Relative Humidity [%] !Daily [Value,Min,Hour,Minute,Max,Hour,Minute]
667,1,WHOLEBUILDING-DINING - BAR/LOUNGE ZN,Zone Air Temperature [C] !Hourly
668,7,WHOLEBUILDING-DINING - BAR/LOUNGE ZN,Zone Air Relative Humidity [%] !Daily [Value,Min,Hour,Minute,Max,Hour,Minute]
707,1,WHOLEBUILDING-DINING - CAFETERIA ZN,Zone Air Temperature [C] !Hourly
708,7,WHOLEBUILDING-DINING - CAFETERIA ZN,Zone Air Relative Humidity [%] !Daily [Value,Min,Hour,Minute,Max,Hour,Minute]
747,1,WHOLEBUILDING-DINING - FAMILY ZN,Zone Air Temperature [C] !Hourly
748,7,WHOLEBUILDING-DINING - FAMILY ZN,Zone Air Relative Humidity [%] !Daily [Value,Min,Hour,Minute,Max,Hour,Minute]
787,1,WHOLEBUILDING-DORMITORY ZN,Zone Air Temperature [C] !Hourly
788,7,WHOLEBUILDING-DORMITORY ZN,Zone Air Relative Humidity [%] !Daily [Value,Min,Hour,Minute,Max,Hour,Minute]
827,1,WHOLEBUILDING-EXERCISE CENTRE ZN,Zone Air Temperature [C] !Hourly
828,7,WHOLEBUILDING-EXERCISE CENTRE ZN,Zone Air Relative Humidity [%] !Daily [Value,Min,Hour,Minute,Max,Hour,Minute]
867,1,WHOLEBUILDING-FIRE STATION ZN,Zone Air Temperature [C] !Hourly
868,7,WHOLEBUILDING-FIRE STATION ZN,Zone Air Relative Humidity [%] !Daily [Value,Min,Hour,Minute,Max,Hour,Minute]
907,1,WHOLEBUILDING-GYMNASIUM ZN,Zone Air Temperature [C] !Hourly
908,7,WHOLEBUILDING-GYMNASIUM ZN,Zone Air Relative Humidity [%] !Daily [Value,Min,Hour,Minute,Max,Hour,Minute]
10,1,Electricity:Facility [J] !TimeStep
1058,1,DistrictCooling:Facility [J] !TimeStep
1021,1,DistrictHeating:Facility [J] !TimeStep
End of Data Dictionary
1,FORT MCMURRAY AP ANN CLG .4% CONDNS DB=>MWB,  56.65,-111.22,  -7.00, 369.10
2,1, 7,21, 0, 1, 0.00,10.00,SummerDesignDay
8,14.218136923962174
10,69670670.17431557
1021,0.0
1058,27169083.07130263
2,1, 7,21, 0, 1,10.00,20.00,SummerDesignDay
8,14.171982153293495
10,69670670.17431557
1021,0.0
1058,23973396.652111949
2,1, 7,21, 0, 1,20.00,30.00,SummerDesignDay
8,14.125744780286427
10,69670670.17431557
1021,0.0
1058,21206189.02765975
2,1, 7,21, 0, 1,30.00,40.00,SummerDesignDay
8,14.079436086331978
10,69670670.17431557
1021,0.0
1058,18458792.089842149
2,1, 7,21, 0, 1,40.00,50.00,SummerDesignDay
8,14.033050387896898
10,69670670.17431557
1021,0.0
1058,15742019.115548492
2,1, 7,21, 0, 1,50.00,60.00,SummerDesignDay
8,13.986581233564835
10,69670670.17431557
1021,0.0
1058,13147699.935825952
2,1, 7,21, 0, 1, 0.00,60.00,SummerDesignDay
547,22.262792613916145
587,22.861246471807406
627,23.295937559596024
667,23.999429584673356
707,24.000000000000019
747,24.00000000000001
787,24.000000000000005
827,24.000000000000005
867,24.00000000000001
907,24.00000000000001
2,1, 7,21, 0, 2, 0.00,10.00,SummerDesignDay
8,13.95555882260429
10,39535920.966835398
1021,0.0
1058,1128144.44310007
2,1, 7,21, 0, 2,10.00,20.00,SummerDesignDay
8,13.924507755336454
10,39535920.966835398
1021,0.0
1058,835032.2665904529
2,1, 7,21, 0, 2,20.00,30.00,SummerDesignDay
8,13.893416042989206
10,39535920.966835398
1021,0.0
1058,578825.8371579839
2,1, 7,21, 0, 2,30.00,40.00,SummerDesignDay
8,13.862289589689029
10,39535920.966835398
1021,0.0
1058,323814.07203450557
2,1, 7,21, 0, 2,40.00,50.00,SummerDesignDay
8,13.831134407608739
10,39535920.966835398
1021,0.0
1058,72575.72242585232
2,1, 7,21, 0, 2,50.00,60.00,SummerDesignDay
8,13.799938415548118
10,39535920.966835398
1021,0.0
1058,0.0
2,1, 7,21, 0, 2, 0.00,60.00,SummerDesignDay
547,21.8803793227237
587,22.494672642300285
627,22.953925048760039
667,23.270827378876516
707,23.511536348016759
747,23.64571975534639
787,23.76819942556554
827,23.646350388770327
867,23.998937022521216
907,23.918621210776949
2,1, 7,21, 0, 3, 0.00,10.00,SummerDesignDay
8,13.776521671948676
10,13046141.424099252
1021,0.0
1058,0.0
2,1, 7,21, 0, 3,10.00,20.00,SummerDesignDay
8,13.753085235778466
10,13046141.424099252
1021,0.0
1058,0.0
2,1, 7,21, 0, 3,20.00,30.00,SummerDesignDay
8,13.729636002354969
10,13046141.424099252
1021,0.0
1058,0.0
2,1, 7,21, 0, 3,30.00,40.00,SummerDesignDay
8,13.706147375533054
10,13046141.424099252
1021,0.0
1058,0.0
2,1, 7,21, 0, 3,40.00,50.00,SummerDesignDay
8,13.682651961920304
10,13046141.424099252
1021,0.0
1058,0.0
2,1, 7,21, 0, 3,50.00,60.00,SummerDesignDay
8,13.659136670643687
10,13046141.424099252
1021,0.0
1058,0.0
2,1, 7,21, 0, 3, 0.00,60.00,SummerDesignDay
547,21.544640309011656
587,22.163843291933678
627,22.655276711579316
667,22.131070254301777
707,22.730142957197189
747,22.903067825579723
787,23.433223554367915
827,22.928745055486869
867,23.90424507747538
907,23.24736636046686
2,1, 7,21, 0, 4, 0.00,10.00,SummerDesignDay
8,13.63560137410855
10,11909900.8803291
1021,0.0
1058,0.0
2,1, 7,21, 0, 4,10.00,20.00,SummerDesignDay
8,13.612040802606578
10,11909900.8803291
1021,0.0
1058,0.0
2,1, 7,21, 0, 4,20.00,30.00,SummerDesignDay
8,13.58846620506876
10,11909900.8803291
1021,0.0
1058,0.0
2,1, 7,21, 0, 4,30.00,40.00,SummerDesignDay
8,13.56487178447336
10,11909900.8803291
1021,0.0
1058,0.0
2,1, 7,21, 0, 4,40.00,50.00,SummerDesignDay
8,13.541257354069103
10,11909900.8803291
1021,0.0
1058,0.0
2,1, 7,21, 0, 4,50.00,60.00,SummerDesignDay
8,13.517617463812285
10,11909900.8803291
1021,0.0
1058,0.0
2,1, 7,21, 0, 4, 0.00,60.00,SummerDesignDay
547,21.21731377165538
587,21.836306316225046
627,22.38053174949772
667,21.47042502419654
707,22.291190641786256
747,22.46329042408379
787,23.15661105785762
827,22.517761465769089
867,23.61578003929524
907,22.797264122185557
2,1, 7,21, 0, 5, 0.00,10.00,SummerDesignDay
8,13.50185415824011
10,11909900.8803291
1021,0.0
1058,0.0
2,1, 7,21, 0, 5,10.00,20.00,SummerDesignDay
8,13.486076034032447
10,11909900.8803291
1021,0.0
1058,0.0
2,1, 7,21, 0, 5,20.00,30.00,SummerDesignDay
8,13.470289340350983
10,11909900.8803291
1021,0.0
1058,0.0
2,1, 7,21, 0, 5,30.00,40.00,SummerDesignDay
8,13.454493322631063
10,11909900.8803291
1021,0.0
1058,0.0
2,1, 7,21, 0, 5,40.00,50.00,SummerDesignDay
8,13.438688835118548
10,11909900.8803291
1021,0.0
1058,0.0
2,1, 7,21, 0, 5,50.00,60.00,SummerDesignDay
8,13.422888173889437
10,11909900.8803291
1021,0.0
1058,0.0
2,1, 7,21, 0, 5, 0.00,60.00,SummerDesignDay
547,20.961515645379654
587,21.590960799625806
627,22.32643034855933
667,21.153258394234084
707,21.999917471406197
747,22.170080819617895
787,23.171045834803903
827,22.25092280761785
867,23.377402477766667
907,22.48380749136085
2,1, 7,21, 0, 6, 0.00,10.00,SummerDesignDay
8,13.438688835118548
10,11909900.8803291
1021,0.0
1058,0.0
2,1, 7,21, 0, 6,10.00,20.00,SummerDesignDay
8,13.454493322631063
10,11909900.8803291
1021,0.0
1058,0.0
2,1, 7,21, 0, 6,20.00,30.00,SummerDesignDay
8,13.470289340350983
10,11909900.8803291
1021,0.0
1058,4741442.748652586
2,1, 7,21, 0, 6,30.00,40.00,SummerDesignDay
8,13.486076034032447
10,11909900.8803291
1021,0.0
1058,5425726.759208098
2,1, 7,21, 0, 6,40.00,50.00,SummerDesignDay
8,13.50185415824011
10,11909900.8803291
1021,0.0
1058,6764366.841539388
2,1, 7,21, 0, 6,50.00,60.00,SummerDesignDay
8,13.517617463812285
10,11909900.8803291
1021,0.0
1058,8390489.989560178
2,1, 7,21, 0, 6, 0.00,60.00,SummerDesignDay
547,20.99194291036523
587,21.660674430334259
627,22.73546190268966
667,21.18119542147194
707,21.80315732429398
747,21.97032754121649
787,23.940734717420033
827,22.094221881119578
867,23.24034168493431
907,22.259877774192078
2,1, 7,21, 0, 7, 0.00,10.00,SummerDesignDay
8,13.572736920571789
10,14531129.065246407
1021,0.0
1058,11015303.770657417
2,1, 7,21, 0, 7,10.00,20.00,SummerDesignDay
8,13.627748229152554
10,14531129.065246407
1021,0.0
1058,12690796.732150648
2,1, 7,21, 0, 7,20.00,30.00,SummerDesignDay
8,13.682651961920304
10,14531129.065246407
1021,0.0
1058,14104696.472676324
2,1, 7,21, 0, 7,30.00,40.00,SummerDesignDay
8,13.737448093244995
10,14531129.065246407
1021,0.0
1058,15261556.736092495
2,1, 7,21, 0, 7,40.00,50.00,SummerDesignDay
8,13.792137011831216
10,14531129.065246407
1021,0.0
1058,16358693.371338072
2,1, 7,21, 0, 7,50.00,60.00,SummerDesignDay
8,13.846719282840333
10,14531129.065246407
1021,0.0
1058,17419416.507685126
2,1, 7,21, 0, 7, 0.00,60.00,SummerDesignDay
547,21.397216110319446
587,22.09287403775801
627,23.08509151225142
667,21.58975590451016
707,21.788375174082448
747,21.95130076576251
787,23.999999998923444
827,22.157895585497049
867,23.33283402949114
907,22.21436712803062
2,1, 7,21, 0, 8, 0.00,10.00,SummerDesignDay
8,13.978831900527043
10,24459171.438577247
1021,0.0
1058,21035236.283255884
2,1, 7,21, 0, 8,10.00,20.00,SummerDesignDay
8,14.110321014287419
10,24459171.438577247
1021,0.0
1058,22492501.796014225
2,1, 7,21, 0, 8,20.00,30.00,SummerDesignDay
8,14.241191509616986
10,24459171.438577247
1021,0.0
1058,25856626.539130998
2,1, 7,21, 0, 8,30.00,40.00,SummerDesignDay
8,14.371447531304272
10,24459171.438577247
1021,0.0
1058,34075197.67072866
2,1, 7,21, 0, 8,40.00,50.00,SummerDesignDay
8,14.501093766564925
10,24459171.438577247
1021,0.0
1058,33899000.87257448
2,1, 7,21, 0, 8,50.00,60.00,SummerDesignDay
8,14.630134792273804
10,24459171.438577247
1021,0.0
1058,36877361.9339758
2,1, 7,21, 0, 8, 0.00,60.00,SummerDesignDay
547,22.3585838687523
587,23.051622042991487
627,23.892350706321893
667,22.574866331224525
707,22.065608846834406
747,22.221159692297634
787,24.000000000000005
827,22.521879221442278
867,23.670511311833367
907,22.45635902645915
2,1, 7,21, 0, 9, 0.00,10.00,SummerDesignDay
8,14.773641492809972
10,49147090.97073142
1021,0.0
1058,53904597.16835778
2,1, 7,21, 0, 9,10.00,20.00,SummerDesignDay
8,14.91640948124148
10,49147090.97073142
1021,0.0
1058,69440346.86558321
2,1, 7,21, 0, 9,20.00,30.00,SummerDesignDay
8,15.05843890714102
10,49147090.97073142
1021,0.0
1058,94687097.53010614
2,1, 7,21, 0, 9,30.00,40.00,SummerDesignDay
8,15.199735893563798
10,49147090.97073142
1021,0.0
1058,97505364.9022838
2,1, 7,21, 0, 9,40.00,50.00,SummerDesignDay
8,15.340306256439395
10,49147090.97073142
1021,0.0
1058,107194536.48125148
2,1, 7,21, 0, 9,50.00,60.00,SummerDesignDay
8,15.48015101768072
10,49147090.97073142
1021,0.0
1058,116902129.13649659
2,1, 7,21, 0, 9, 0.00,60.00,SummerDesignDay
547,23.87703541240259
587,23.990370786270078
627,23.999999998682627
667,23.862253409744367
707,22.717807719022223
747,22.860539556579054
787,24.000000000000033
827,23.24403785803756
867,23.989534011566354
907,23.060164965225906
2,1, 7,21, 0,10, 0.00,10.00,SummerDesignDay
8,15.60467292907716
10,84051800.4787572
1021,0.0
1058,138166907.39066843
2,1, 7,21, 0,10,10.00,20.00,SummerDesignDay
8,15.72862731650033
10,84051800.4787572
1021,0.0
1058,150306067.80936057
2,1, 7,21, 0,10,20.00,30.00,SummerDesignDay
8,15.852017409284228
10,84051800.4787572
1021,0.0
1058,161575884.39480464
2,1, 7,21, 0,10,30.00,40.00,SummerDesignDay
8,15.974848118364367
10,84051800.4787572
1021,0.0
1058,181308858.54584334
2,1, 7,21, 0,10,40.00,50.00,SummerDesignDay
8,16.097123145563505
10,84051800.4787572
1021,0.0
1058,197111544.89533837
2,1, 7,21, 0,10,50.00,60.00,SummerDesignDay
8,16.218846351168599
10,84051800.4787572
1021,0.0
1058,204089010.57621948
2,1, 7,21, 0,10, 0.00,60.00,SummerDesignDay
547,23.999999997246517
587,23.99999999997691
627,24.000000000000019
667,23.999999929723474
707,23.752774005293899
747,23.822704963769934
787,24.000000000000005
827,23.973836061149944
867,23.99999999999606
907,23.909224899029654
2,1, 7,21, 0,11, 0.00,10.00,SummerDesignDay
8,16.325793027093189
10,101436655.79484807
1021,0.0
1058,232922084.2764718
2,1, 7,21, 0,11,10.00,20.00,SummerDesignDay
8,16.432322158488288
10,101436655.79484807
1021,0.0
1058,244327765.93462599
2,1, 7,21, 0,11,20.00,30.00,SummerDesignDay
8,16.538424180249178
10,101436655.79484807
1021,0.0
1058,254439325.32899247
2,1, 7,21, 0,11,30.00,40.00,SummerDesignDay
8,16.644108396469087
10,101436655.79484807
1021,0.0
1058,264160241.68696673
2,1, 7,21, 0,11,40.00,50.00,SummerDesignDay
8,16.749376736593655
10,101436655.79484807
1021,0.0
1058,273244794.3493565
2,1, 7,21, 0,11,50.00,60.00,SummerDesignDay
8,16.854232613237156
10,101436655.79484807
1021,0.0
1058,281862654.7230705
2,1, 7,21, 0,11, 0.00,60.00,SummerDesignDay
547,24.000000000000005
587,24.000000000000019
627,24.000000000000058
667,23.99999999999997
707,23.99999678623711
747,23.9999984819634
787,24.000000000000015
827,23.999999997710167
867,24.000000000000005
907,23.999999923332884
2,1, 7,21, 0,12, 0.00,10.00,SummerDesignDay
8,16.92390823520069
10,113545305.02244599
1021,0.0
1058,303843826.05826738
2,1, 7,21, 0,12,10.00,20.00,SummerDesignDay
8,16.99340178950456
10,113545305.02244599
1021,0.0
1058,310704943.1210618
2,1, 7,21, 0,12,20.00,30.00,SummerDesignDay
8,17.06272006743463
10,113545305.02244599
1021,0.0
1058,316836959.5010791
2,1, 7,21, 0,12,30.00,40.00,SummerDesignDay
8,17.131853229172639
10,113545305.02244599
1021,0.0
1058,322850906.96823069
2,1, 7,21, 0,12,40.00,50.00,SummerDesignDay
8,17.200807172194087
10,113545305.02244599
1021,0.0
1058,328676173.79830577
2,1, 7,21, 0,12,50.00,60.00,SummerDesignDay
8,17.269582116758607
10,113545305.02244599
1021,0.0
1058,334285923.2328833
2,1, 7,21, 0,12, 0.00,60.00,SummerDesignDay
547,24.000000000000033
587,24.0
627,23.999999999999969
667,24.0
707,23.99999999999856
747,23.9999999999994
787,24.00000000000003
827,24.00000000000001
867,24.000000000000005
907,23.999999999999984
2,1, 7,21, 0,13, 0.00,10.00,SummerDesignDay
8,17.32447360221357
10,112409064.47867584
1021,0.0
1058,351483727.73948416
2,1, 7,21, 0,13,10.00,20.00,SummerDesignDay
8,17.379251291230806
10,112409064.47867584
1021,0.0
1058,356534766.6199736
2,1, 7,21, 0,13,20.00,30.00,SummerDesignDay
8,17.433921312061729
10,112409064.47867584
1021,0.0
1058,361164559.84942367
2,1, 7,21, 0,13,30.00,40.00,SummerDesignDay
8,17.488473222557489
10,112409064.47867584
1021,0.0
1058,365607738.91369888
2,1, 7,21, 0,13,40.00,50.00,SummerDesignDay
8,17.542913447755134
10,112409064.47867584
1021,0.0
1058,369763147.6995475
2,1, 7,21, 0,13,50.00,60.00,SummerDesignDay
8,17.59724609886134
10,112409064.47867584
1021,0.0
1058,373618085.9184818
2,1, 7,21, 0,13, 0.00,60.00,SummerDesignDay
547,24.000000000000015
587,24.000000000000076
627,24.000000000000019
667,24.00000000000006
707,24.00000000000001
747,24.000000000000005
787,24.000000000000019
827,24.0
867,24.00000000000001
907,24.000000000000026
2,1, 7,21, 0,14, 0.00,10.00,SummerDesignDay
8,17.6311450462694
10,112409064.47867584
1021,0.0
1058,372924651.9744949
2,1, 7,21, 0,14,10.00,20.00,SummerDesignDay
8,17.665000449016245
10,112409064.47867584
1021,0.0
1058,375197441.21153077
2,1, 7,21, 0,14,20.00,30.00,SummerDesignDay
8,17.698812743128934
10,112409064.47867584
1021,0.0
1058,377392872.6104585
2,1, 7,21, 0,14,30.00,40.00,SummerDesignDay
8,17.732582050940107
10,112409064.47867584
1021,0.0
1058,379499495.54248228
2,1, 7,21, 0,14,40.00,50.00,SummerDesignDay
8,17.766307345121004
10,112409064.47867584
1021,0.0
1058,381549031.59520027
2,1, 7,21, 0,14,50.00,60.00,SummerDesignDay
8,17.79999023167558
10,112409064.47867584
1021,0.0
1058,383533469.2846003
2,1, 7,21, 0,14, 0.00,60.00,SummerDesignDay
547,23.999999999999987
587,24.00000000000006
627,24.000000000000015
667,24.00000000000003
707,24.000000000000026
747,24.0
787,24.000000000000047
827,24.00000000000001
867,24.000000000000005
907,24.0
2,1, 7,21, 0,15, 0.00,10.00,SummerDesignDay
8,17.79999023167558
10,112409064.47867584
1021,0.0
1058,373790717.2672714
2,1, 7,21, 0,15,10.00,20.00,SummerDesignDay
8,17.79999023167558
10,112409064.47867584
1021,0.0
1058,373574930.8569165
2,1, 7,21, 0,15,20.00,30.00,SummerDesignDay
8,17.79999023167558
10,112409064.47867584
1021,0.0
1058,373381595.30557146
2,1, 7,21, 0,15,30.00,40.00,SummerDesignDay
8,17.79999023167558
10,112409064.47867584
1021,0.0
1058,372985691.67614087
2,1, 7,21, 0,15,40.00,50.00,SummerDesignDay
8,17.79999023167558
10,112409064.47867584
1021,0.0
1058,372375116.83296409
2,1, 7,21, 0,15,50.00,60.00,SummerDesignDay
8,17.79999023167558
10,112409064.47867584
1021,0.0
1058,371522100.55424389
2,1, 7,21, 0,15, 0.00,60.00,SummerDesignDay
547,24.000000000000015
587,24.000000000000069
627,24.000000000000047
667,24.000000000000044
707,24.000000000000026
747,24.000000000000015
787,24.000000000000015
827,24.000000000000026
867,24.00000000000001
907,24.00000000000004
2,1, 7,21, 0,16, 0.00,10.00,SummerDesignDay
8,17.759562446305357
10,112409064.47867584
1021,0.0
1058,360422270.7383841
2,1, 7,21, 0,16,10.00,20.00,SummerDesignDay
8,17.71907809634183
10,112409064.47867584
1021,0.0
1058,356823714.85563328
2,1, 7,21, 0,16,20.00,30.00,SummerDesignDay
8,17.67853788661001
10,112409064.47867584
1021,0.0
1058,352990815.0851394
2,1, 7,21, 0,16,30.00,40.00,SummerDesignDay
8,17.63791796367351
10,112409064.47867584
1021,0.0
1058,348880859.19025769
2,1, 7,21, 0,16,40.00,50.00,SummerDesignDay
8,17.59724609886134
10,112409064.47867584
1021,0.0
1058,344556637.89122459
2,1, 7,21, 0,16,50.00,60.00,SummerDesignDay
8,17.55650676726033
10,112409064.47867584
1021,0.0
1058,340024544.9320277
2,1, 7,21, 0,16, 0.00,60.00,SummerDesignDay
547,24.000000000000019
587,23.999999999999976
627,24.000000000000058
667,24.000000000000055
707,24.00000000000001
747,24.000000000000026
787,24.000000000000044
827,23.99999999999999
867,24.000000000000005
907,24.00000000000001
2,1, 7,21, 0,17, 0.00,10.00,SummerDesignDay
8,17.50209486331892
10,112690312.13792897
1021,0.0
1058,335520653.00667557
2,1, 7,21, 0,17,10.00,20.00,SummerDesignDay
8,17.447570789624618
10,112690312.13792897
1021,0.0
1058,330047472.03886649
2,1, 7,21, 0,17,20.00,30.00,SummerDesignDay
8,17.392929544208135
10,112690312.13792897
1021,0.0
1058,324380564.5805211
2,1, 7,21, 0,17,30.00,40.00,SummerDesignDay
8,17.33818013976614
10,112690312.13792897
1021,0.0
1058,318536960.8021498
2,1, 7,21, 0,17,40.00,50.00,SummerDesignDay
8,17.283317298559309
10,112690312.13792897
1021,0.0
1058,312524574.9004502
2,1, 7,21, 0,17,50.00,60.00,SummerDesignDay
8,17.22833552437677
10,112690312.13792897
1021,0.0
1058,306366370.21686169
2,1, 7,21, 0,17, 0.00,60.00,SummerDesignDay
547,24.000000000000005
587,24.000000000000019
627,24.000000000000019
667,23.999999999999984
707,23.99999999999999
747,24.00000000000001
787,24.0
827,24.000000000000019
867,24.000000000000005
907,24.000000000000026
2,1, 7,21, 0,18, 0.00,10.00,SummerDesignDay
8,17.159453019160176
10,110575329.74015168
1021,0.0
1058,300288582.0307814
2,1, 7,21, 0,18,10.00,20.00,SummerDesignDay
8,17.090391773337136
10,110575329.74015168
1021,0.0
1058,293051664.97909709
2,1, 7,21, 0,18,20.00,30.00,SummerDesignDay
8,17.021151077964786
10,110575329.74015168
1021,0.0
1058,285770778.20144268
2,1, 7,21, 0,18,30.00,40.00,SummerDesignDay
8,16.951729380464653
10,110575329.74015168
1021,0.0
1058,278545370.2557404
2,1, 7,21, 0,18,40.00,50.00,SummerDesignDay
8,16.882126503829249
10,110575329.74015168
1021,0.0
1058,271398918.1713911
2,1, 7,21, 0,18,50.00,60.00,SummerDesignDay
8,16.812341807494034
10,110575329.74015168
1021,0.0
1058,264356190.25280205
2,1, 7,21, 0,18, 0.00,60.00,SummerDesignDay
547,24.00000000000004
587,24.000000000000019
627,24.000000000000015
667,24.000000000000019
707,24.000000000000015
747,24.000000000000026
787,23.99999999999999
827,24.0
867,24.000000000000019
907,24.00000000000001
2,1, 7,21, 0,19, 0.00,10.00,SummerDesignDay
8,16.707321072823203
10,96130449.95903793
1021,0.0
1058,250551148.3618412
2,1, 7,21, 0,19,10.00,20.00,SummerDesignDay
8,16.601881826644556
10,96130449.95903793
1021,0.0
1058,241182595.46069674
2,1, 7,21, 0,19,20.00,30.00,SummerDesignDay
8,16.496030555252849
10,96130449.95903793
1021,0.0
1058,232808401.86296
2,1, 7,21, 0,19,30.00,40.00,SummerDesignDay
8,16.389760181474104
10,96130449.95903793
1021,0.0
1058,224626546.13801024
2,1, 7,21, 0,19,40.00,50.00,SummerDesignDay
8,16.283067654262039
10,96130449.95903793
1021,0.0
1058,216672068.417167
2,1, 7,21, 0,19,50.00,60.00,SummerDesignDay
8,16.17595057957811
10,96130449.95903793
1021,0.0
1058,208892944.34823058
2,1, 7,21, 0,19, 0.00,60.00,SummerDesignDay
547,24.000000000000033
587,24.000000000000015
627,24.000000000000019
667,23.999999999999998
707,24.00000000000003
747,24.00000000000003
787,24.000000000000019
827,24.000000000000019
867,24.000000000000015
907,24.000000000000019
2,1, 7,21, 0,20, 0.00,10.00,SummerDesignDay
8,16.097123145563505
10,91686736.94396866
1021,0.0
1058,190953652.43755654
2,1, 7,21, 0,20,10.00,20.00,SummerDesignDay
8,16.018070242471564
10,91686736.94396866
1021,0.0
1058,185954789.6854215
2,1, 7,21, 0,20,20.00,30.00,SummerDesignDay
8,15.938779752340516
10,91686736.94396866
1021,0.0
1058,180778133.01829348
2,1, 7,21, 0,20,30.00,40.00,SummerDesignDay
8,15.85926152575189
10,91686736.94396866
1021,0.0
1058,175533565.20868138
2,1, 7,21, 0,20,40.00,50.00,SummerDesignDay
8,15.779503718563929
10,91686736.94396866
1021,0.0
1058,170177873.62702549
2,1, 7,21, 0,20,50.00,60.00,SummerDesignDay
8,15.699515709672767
10,91686736.94396866
1021,0.0
1058,164599715.2863042
2,1, 7,21, 0,20, 0.00,60.00,SummerDesignDay
547,24.790943531360019
587,24.00000000000003
627,24.00000000000001
667,24.00000000000007
707,24.000000000000019
747,24.000000000000015
787,24.0
827,24.00000000000001
867,24.00000000000001
907,23.99999999999999
2,1, 7,21, 0,21, 0.00,10.00,SummerDesignDay
8,15.63389147320404
10,91810485.91466972
1021,0.0
1058,159512826.33280046
2,1, 7,21, 0,21,10.00,20.00,SummerDesignDay
8,15.56810827419793
10,91810485.91466972
1021,0.0
1058,153979473.4080736
2,1, 7,21, 0,21,20.00,30.00,SummerDesignDay
8,15.502170882753524
10,91810485.91466972
1021,0.0
1058,148425879.24042265
2,1, 7,21, 0,21,30.00,40.00,SummerDesignDay
8,15.436068032613852
10,91810485.91466972
1021,0.0
1058,142898220.3057161
2,1, 7,21, 0,21,40.00,50.00,SummerDesignDay
8,15.369804371206009
10,91810485.91466972
1021,0.0
1058,137737664.304621
2,1, 7,21, 0,21,50.00,60.00,SummerDesignDay
8,15.303384603594449
10,91810485.91466972
1021,0.0
1058,132398711.6253396
2,1, 7,21, 0,21, 0.00,60.00,SummerDesignDay
547,24.44311149742303
587,24.000000000000026
627,23.999999999999998
667,24.00000000000001
707,24.000000000000055
747,24.0
787,24.00000000000003
827,24.0
867,24.000000000000019
907,24.00000000000004
2,1, 7,21, 0,22, 0.00,10.00,SummerDesignDay
8,15.236797685071274
10,82141191.38889316
1021,0.0
1058,112311611.843986
2,1, 7,21, 0,22,10.00,20.00,SummerDesignDay
8,15.170047891787942
10,82141191.38889316
1021,0.0
1058,109653512.16423121
2,1, 7,21, 0,22,20.00,30.00,SummerDesignDay
8,15.103134826860483
10,82141191.38889316
1021,0.0
1058,107018067.72055581
2,1, 7,21, 0,22,30.00,40.00,SummerDesignDay
8,15.036063385178485
10,82141191.38889316
1021,0.0
1058,104246738.60541404
2,1, 7,21, 0,22,40.00,50.00,SummerDesignDay
8,14.968821767219835
10,82141191.38889316
1021,0.0
1058,101472103.14966122
2,1, 7,21, 0,22,50.00,60.00,SummerDesignDay
8,14.90141525878635
10,82141191.38889316
1021,0.0
1058,98646832.88479527
2,1, 7,21, 0,22, 0.00,60.00,SummerDesignDay
547,23.73755944050173
587,24.08512432453762
627,24.323736483725026
667,24.00000000000004
707,24.00000000000003
747,23.999999999999984
787,24.000000000000005
827,24.0
867,24.00000000000001
907,24.0
2,1, 7,21, 0,23, 0.00,10.00,SummerDesignDay
8,14.848873673278373
10,80262457.02454941
1021,0.0
1058,82325826.2674348
2,1, 7,21, 0,23,10.00,20.00,SummerDesignDay
8,14.796237168136719
10,80262457.02454941
1021,0.0
1058,79222871.7299499
2,1, 7,21, 0,23,20.00,30.00,SummerDesignDay
8,14.743494321455645
10,80262457.02454941
1021,0.0
1058,76367565.24487019
2,1, 7,21, 0,23,30.00,40.00,SummerDesignDay
8,14.690649975253665
10,80262457.02454941
1021,0.0
1058,73524281.5459372
2,1, 7,21, 0,23,40.00,50.00,SummerDesignDay
8,14.637704281233117
10,80262457.02454941
1021,0.0
1058,70702788.9377643
2,1, 7,21, 0,23,50.00,60.00,SummerDesignDay
8,14.584656914839757
10,80262457.02454941
1021,0.0
1058,67894943.68082786
2,1, 7,21, 0,23, 0.00,60.00,SummerDesignDay
547,23.16824825298487
587,23.703736012715514
627,24.188798276742874
667,24.00000000000001
707,24.000000000000005
747,24.000000000000044
787,24.00000000000001
827,24.00000000000001
867,24.00000000000004
907,24.00000000000003
2,1, 7,21, 0,24, 0.00,10.00,SummerDesignDay
8,14.531507212058875
10,75869368.58585301
1021,0.0
1058,53930196.81711754
2,1, 7,21, 0,24,10.00,20.00,SummerDesignDay
8,14.47825496413355
10,75869368.58585301
1021,0.0
1058,50562728.15946513
2,1, 7,21, 0,24,20.00,30.00,SummerDesignDay
8,14.4249000133173
10,75869368.58585301
1021,0.0
1058,47569650.30442053
2,1, 7,21, 0,24,30.00,40.00,SummerDesignDay
8,14.371447531304272
10,75869368.58585301
1021,0.0
1058,44589578.88799763
2,1, 7,21, 0,24,40.00,50.00,SummerDesignDay
8,14.31788619902223
10,75869368.58585301
1021,0.0
1058,41630991.790796969
2,1, 7,21, 0,24,50.00,60.00,SummerDesignDay
8,14.264220970176066
10,75869368.58585301
1021,0.0
1058,38646550.89370074
2,1, 7,21, 0,24, 0.00,60.00,SummerDesignDay
547,22.70110344920664
587,23.272945814316086
627,23.72866380767728
667,24.000000000000015
707,24.000000000000015
747,24.0
787,24.0
827,24.0
867,24.000000000000005
907,24.00000000000001
3,1, 7,21, 0,SummerDesignDay
548,46.2864792094153,40.683332191484257,20,20,54.469197660705848, 5,60
588,45.84807567498757,41.676864287135177,10,60,52.35054661807569, 5,60
628,44.475657681151208,41.27679563429671,14,60,50.282276759744018, 5,20
668,45.81657960996543,40.72297239032518,17,30,53.86386993805934, 5,60
708,46.67155927027551,41.63218664917842,17,60,51.756056989705957, 7,10
748,46.39221982756033,41.631955012529548,17,60,51.23546340650017, 7,10
788,44.29950898119941,40.66242922738489,14,50,53.09103255125818, 5,20
828,46.219713623139487,41.67497260944483,17,60,50.745358321071957, 6,60
868,45.26250474432275,40.88692074910305,16,60,52.146557226435799, 6,60
908,45.94952385343509,41.6752256858787,17,60,50.383260778560039, 7,10
4,1, 7
7,22.2505,16.5,21, 5,60,28.9,21,14,60
1,FORT MCMURRAY AP ANN HTG 99.6% CONDNS DB,  56.65,-111.22,  -7.00, 369.10
2,1, 1,21, 0, 1, 0.00,10.00,WinterDesignDay
8,-36.2
10,69670670.17431557
1021,839641459.3922021
1058,0.0
2,1, 1,21, 0, 1,10.00,20.00,WinterDesignDay
8,-36.2
10,69670670.17431557
1021,840192596.3682554
1058,0.0
2,1, 1,21, 0, 1,20.00,30.00,WinterDesignDay
8,-36.2
10,69670670.17431557
1021,840431331.3040603
1058,0.0
2,1, 1,21, 0, 1,30.00,40.00,WinterDesignDay
8,-36.2
10,69670670.17431557
1021,840661232.0677086
1058,0.0
2,1, 1,21, 0, 1,40.00,50.00,WinterDesignDay
8,-36.2
10,69670670.17431557
1021,840866311.37193
1058,0.0
2,1, 1,21, 0, 1,50.00,60.00,WinterDesignDay
8,-36.2
10,69670670.17431557
1021,841057636.8072059
1058,0.0
2,1, 1,21, 0, 1, 0.00,60.00,WinterDesignDay
547,17.999999999999994
587,17.999999999999987
627,18.000000000000008
667,21.999999999999976
707,22.0
747,22.0
787,22.00000000000004
827,22.00000000000001
867,22.0
907,22.000000000000015
2,1, 1,21, 0, 2, 0.00,10.00,WinterDesignDay
8,-36.2
10,39535920.966835398
1021,771243343.2212895
1058,0.0
2,1, 1,21, 0, 2,10.00,20.00,WinterDesignDay
8,-36.2
10,39535920.966835398
1021,803190338.4419187
1058,0.0
2,1, 1,21, 0, 2,20.00,30.00,WinterDesignDay
8,-36.2
10,39535920.966835398
1021,823288553.244146
1058,0.0
2,1, 1,21, 0, 2,30.00,40.00,WinterDesignDay
8,-36.2
10,39535920.966835398
1021,831712095.2572789
1058,0.0
2,1, 1,21, 0, 2,40.00,50.00,WinterDesignDay
8,-36.2
10,39535920.966835398
1021,832883703.7710216
1058,0.0
2,1, 1,21, 0, 2,50.00,60.00,WinterDesignDay
8,-36.2
10,39535920.966835398
1021,835370749.6036484
1058,0.0
2,1, 1,21, 0, 2, 0.00,60.00,WinterDesignDay
547,17.999999999999998
587,17.999999999999994
627,18.0
667,22.000000000000005
707,22.0
747,22.0
787,18.314937869717057
827,22.0
867,18.245751020259818
907,22.0
2,1, 1,21, 0, 3, 0.00,10.00,WinterDesignDay
8,-36.2
10,13046141.424099252
1021,591981613.7230846
1058,0.0
2,1, 1,21, 0, 3,10.00,20.00,WinterDesignDay
8,-36.2
10,13046141.424099252
1021,690530672.0554203
1058,0.0
2,1, 1,21, 0, 3,20.00,30.00,WinterDesignDay
8,-36.2
10,13046141.424099252
1021,740102204.8671503
1058,0.0
2,1, 1,21, 0, 3,30.00,40.00,WinterDesignDay
8,-36.2
10,13046141.424099252
1021,746524894.8187107
1058,0.0
2,1, 1,21, 0, 3,40.00,50.00,WinterDesignDay
8,-36.2
10,13046141.424099252
1021,759103227.4910294
1058,0.0
2,1, 1,21, 0, 3,50.00,60.00,WinterDesignDay
8,-36.2
10,13046141.424099252
1021,761643756.445916
1058,0.0
2,1, 1,21, 0, 3, 0.00,60.00,WinterDesignDay
547,17.999999999999998
587,17.999999999999984
627,17.999999999999998
667,18.103171700435394
707,18.12045690283791
747,18.12050015198379
787,18.00000000000008
827,18.123273132248096
867,18.000000000001856
907,18.123932862746018
2,1, 1,21, 0, 4, 0.00,10.00,WinterDesignDay
8,-36.2
10,11909900.8803291
1021,764346128.2953088
1058,0.0
2,1, 1,21, 0, 4,10.00,20.00,WinterDesignDay
8,-36.2
10,11909900.8803291
1021,766352817.7627192
1058,0.0
2,1, 1,21, 0, 4,20.00,30.00,WinterDesignDay
8,-36.2
10,11909900.8803291
1021,768175949.4470532
1058,0.0
2,1, 1,21, 0, 4,30.00,40.00,WinterDesignDay
8,-36.2
10,11909900.8803291
1021,769871167.3090623
1058,0.0
2,1, 1,21, 0, 4,40.00,50.00,WinterDesignDay
8,-36.2
10,11909900.8803291
1021,771458676.6203073
1058,0.0
2,1, 1,21, 0, 4,50.00,60.00,WinterDesignDay
8,-36.2