Program Version,EnergyPlus, Version 8.9.0-eba93e8e1b, YMD=2019.03.21 16:05
1,5,Environment Title[],Latitude[deg],Longitude[deg],Time Zone[],Elevation[m]
2,8,Day of Simulation[],Month[],Day of Month[],DST Indicator[1=yes 0=no],Hour[],StartMinute[],EndMinute[],DayType
3,5,Cumulative Day of Simulation[],Month[],Day of Month[],DST Indicator[1=yes 0=no],DayType  ! When Daily Report Variables Requested
4,2,Cumulative Days of Simulation[],Month[]  ! When Monthly Report Variables Requested
5,1,Cumulative Days of Simulation[] ! When Run Period Report Variables Requested
6,1,Calendar Year of Simulation[] ! When Annual Report Variables Requested
7,9,Environment,Site Outdoor Air Drybulb Temperature [C] !Monthly [Value,Min,Day,Hour,Minute,Max,Day,Hour,Minute]
8,1,Environment,Site Outdoor Air Wetbulb Temperature [C] !TimeStep
357,1,SPORTS ARENA PLAYING AREA CLASS I FACILITY(4)-SPACE FUNCTION ZN,Zone Air Temperature [C] !Hourly
358,7,SPORTS ARENA PLAYING AREA CLASS I FACILITY(4)-SPACE FUNCTION ZN,Zone Air Relative Humidity [%] !Daily [Value,Min,Hour,Minute,Max,Hour,Minute]
397,1,SPORTS ARENA PLAYING AREA CLASS II FACILITY(4)-SPACE FUNCTION ZN,Zone Air Temperature [C] !Hourly
398,7,SPORTS ARENA PLAYING AREA CLASS II FACILITY(4)-SPACE FUNCTION ZN,Zone Air Relative Humidity [%] !Daily [Value,Min,Hour,Minute,Max,Hour,Minute]
437,1,SPORTS ARENA PLAYING AREA CLASS III FACILITY(4)-SPACE FUNCTION ZN,Zone Air Temperature [C] !Hourly
438,7,SPORTS ARENA PLAYING AREA CLASS III FACILITY(4)-SPACE FUNCTION ZN,Zone Air Relative Humidity [%] !Daily [Value,Min,Hour,Minute,Max,Hour,Minute]
477,1,TRANSPORTATION FACILITY BAGGAGE/CAROUSEL AREA-SPACE FUNCTION ZN,Zone Air Temperature [C] !Hourly
478,7,TRANSPORTATION FACILITY BAGGAGE/CAROUSEL AREA-SPACE FUNCTION ZN,Zone Air Relative Humidity [%] !Daily [Value,Min,Hour,Minute,Max,Hour,Minute]
517,1,TRANSPORTATION FACILITY TERMINAL TICKET COUNTER-SPACE FUNCTION ZN,Zone Air Temperature [C] !Hourly
518,7,TRANSPORTATION FACILITY TERMINAL TICKET COUNTER-SPACE FUNCTION ZN,Zone Air Relative Humidity [%] !Daily [Value,Min,Hour,Minute,Max,Hour,Minute]
10,1,Electricity:Facility [J] !TimeStep
668,1,DistrictCooling:Facility [J] !TimeStep
631,1,DistrictHeating:Facility [J] !TimeStep
End of Data Dictionary
1,FORT MCMURRAY AP ANN CLG .4% CONDNS DB=>MWB,  56.65,-111.22,  -7.00, 369.10
2,1, 7,21, 0, 1, 0.00,10.00,SummerDesignDay
8,14.218136923962174
10,124211374.70063046
631,0.0
668,100262144.29903677
2,1, 7,21, 0, 1,10.00,20.00,SummerDesignDay
8,14.171982153293495
10,124211374.70063046
631,0.0
668,98394402.41332039
2,1, 7,21, 0, 1,20.00,30.00,SummerDesignDay
8,14.125744780286427
10,124211374.70063046
631,0.0
668,96805800.25404519
2,1, 7,21, 0, 1,30.00,40.00,SummerDesignDay
8,14.079436086331978
10,124211374.70063046
631,0.0
668,95212945.53241162
2,1, 7,21, 0, 1,40.00,50.00,SummerDesignDay
8,14.033050387896898
10,124211374.70063046
631,0.0
668,93681958.77625063
2,1, 7,21, 0, 1,50.00,60.00,SummerDesignDay
8,13.986581233564835
10,124211374.70063046
631,0.0
668,92206305.3579713
2,1, 7,21, 0, 1, 0.00,60.00,SummerDesignDay
357,24.00000000000006
397,24.0
437,24.000000000000058
477,24.00000000000001
517,24.00000000000001
2,1, 7,21, 0, 2, 0.00,10.00,SummerDesignDay
8,13.95555882260429
10,77739491.94893433
631,0.0
668,15438282.33920629
2,1, 7,21, 0, 2,10.00,20.00,SummerDesignDay
8,13.924507755336454
10,77739491.94893433
631,0.0
668,14875977.175009892
2,1, 7,21, 0, 2,20.00,30.00,SummerDesignDay
8,13.893416042989206
10,77739491.94893433
631,0.0
668,14347937.106166508
2,1, 7,21, 0, 2,30.00,40.00,SummerDesignDay
8,13.862289589689029
10,77739491.94893433
631,0.0
668,13911936.363968187
2,1, 7,21, 0, 2,40.00,50.00,SummerDesignDay
8,13.831134407608739
10,77739491.94893433
631,0.0
668,13537457.219784892
2,1, 7,21, 0, 2,50.00,60.00,SummerDesignDay
8,13.799938415548118
10,77739491.94893433
631,0.0
668,13196803.875354134
2,1, 7,21, 0, 2, 0.00,60.00,SummerDesignDay
357,25.133900288484154
397,24.192974890644874
437,23.71700227155971
477,24.00000000000001
517,24.0
2,1, 7,21, 0, 3, 0.00,10.00,SummerDesignDay
8,13.776521671948676
10,31267609.19723822
631,0.0
668,12855580.457706735
2,1, 7,21, 0, 3,10.00,20.00,SummerDesignDay
8,13.753085235778466
10,31267609.19723822
631,0.0
668,12272106.111019338
2,1, 7,21, 0, 3,20.00,30.00,SummerDesignDay
8,13.729636002354969
10,31267609.19723822
631,0.0
668,11561372.070279278
2,1, 7,21, 0, 3,30.00,40.00,SummerDesignDay
8,13.706147375533054
10,31267609.19723822
631,0.0
668,10842603.055585877
2,1, 7,21, 0, 3,40.00,50.00,SummerDesignDay
8,13.682651961920304
10,31267609.19723822
631,0.0
668,10148414.582473591
2,1, 7,21, 0, 3,50.00,60.00,SummerDesignDay
8,13.659136670643687
10,31267609.19723822
631,0.0
668,9470903.732646116
2,1, 7,21, 0, 3, 0.00,60.00,SummerDesignDay
357,23.415599033422298
397,22.53350343058931
437,22.094021392566046
477,24.00000000000001
517,24.00000000000001
2,1, 7,21, 0, 4, 0.00,10.00,SummerDesignDay
8,13.63560137410855
10,31267609.19723822
631,0.0
668,8829699.019110805
2,1, 7,21, 0, 4,10.00,20.00,SummerDesignDay
8,13.612040802606578
10,31267609.19723822
631,0.0
668,8250130.953167681
2,1, 7,21, 0, 4,20.00,30.00,SummerDesignDay
8,13.58846620506876
10,31267609.19723822
631,0.0
668,7857002.480840541
2,1, 7,21, 0, 4,30.00,40.00,SummerDesignDay
8,13.56487178447336
10,31267609.19723822
631,0.0
668,7606807.157453131
2,1, 7,21, 0, 4,40.00,50.00,SummerDesignDay
8,13.541257354069103
10,31267609.19723822
631,0.0
668,7369892.746871804
2,1, 7,21, 0, 4,50.00,60.00,SummerDesignDay
8,13.517617463812285
10,31267609.19723822
631,0.0
668,7141883.767812006
2,1, 7,21, 0, 4, 0.00,60.00,SummerDesignDay
357,21.463701293032388
397,20.89348876904229
437,20.633574296866546
477,23.97557031694596
517,24.00000000000001
2,1, 7,21, 0, 5, 0.00,10.00,SummerDesignDay
8,13.50185415824011
10,31267609.19723822
631,0.0
668,6956670.216201019
2,1, 7,21, 0, 5,10.00,20.00,SummerDesignDay
8,13.486076034032447
10,31267609.19723822
631,0.0
668,6779827.214953979
2,1, 7,21, 0, 5,20.00,30.00,SummerDesignDay
8,13.470289340350983
10,31267609.19723822
631,0.0
668,6613634.023786793
2,1, 7,21, 0, 5,30.00,40.00,SummerDesignDay
8,13.454493322631063
10,31267609.19723822
631,0.0
668,6456570.152921789
2,1, 7,21, 0, 5,40.00,50.00,SummerDesignDay
8,13.438688835118548
10,31267609.19723822
631,0.0
668,6308472.712842202
2,1, 7,21, 0, 5,50.00,60.00,SummerDesignDay
8,13.422888173889437
10,31267609.19723822
631,0.0
668,6169702.970096551
2,1, 7,21, 0, 5, 0.00,60.00,SummerDesignDay
357,20.505990629860393
397,20.02336523317175
437,19.818789493974625
477,23.795014191094
517,23.999999999999998
2,1, 7,21, 0, 6, 0.00,10.00,SummerDesignDay
8,13.438688835118548
10,31267609.19723822
631,0.0
668,6174954.363404847
2,1, 7,21, 0, 6,10.00,20.00,SummerDesignDay
8,13.454493322631063
10,31267609.19723822
631,0.0
668,6187856.921378514
2,1, 7,21, 0, 6,20.00,30.00,SummerDesignDay
8,13.470289340350983
10,31267609.19723822
631,0.0
668,6206398.735207381
2,1, 7,21, 0, 6,30.00,40.00,SummerDesignDay
8,13.486076034032447
10,31267609.19723822
631,0.0
668,6232540.406990505
2,1, 7,21, 0, 6,40.00,50.00,SummerDesignDay
8,13.50185415824011
10,31267609.19723822
631,0.0
668,6264071.094342619
2,1, 7,21, 0, 6,50.00,60.00,SummerDesignDay
8,13.517617463812285
10,31267609.19723822
631,0.0
668,6302730.287494693
2,1, 7,21, 0, 6, 0.00,60.00,SummerDesignDay
357,20.16657733328681
397,19.700636748631529
437,19.504024319615917
477,23.638318533031126
517,24.000000000000005
2,1, 7,21, 0, 7, 0.00,10.00,SummerDesignDay
8,13.572736920571789
10,31267609.19723822
631,0.0
668,6519728.664121851
2,1, 7,21, 0, 7,10.00,20.00,SummerDesignDay
8,13.627748229152554
10,31267609.19723822
631,0.0
668,6745036.13350783
2,1, 7,21, 0, 7,20.00,30.00,SummerDesignDay
8,13.682651961920304
10,31267609.19723822
631,0.0
668,6965116.222025476
2,1, 7,21, 0, 7,30.00,40.00,SummerDesignDay
8,13.737448093244995
10,31267609.19723822
631,0.0
668,7190053.4788780859
2,1, 7,21, 0, 7,40.00,50.00,SummerDesignDay
8,13.792137011831216
10,31267609.19723822
631,0.0
668,7424508.260047976
2,1, 7,21, 0, 7,50.00,60.00,SummerDesignDay
8,13.846719282840333
10,31267609.19723822
631,0.0
668,7665589.038196813
2,1, 7,21, 0, 7, 0.00,60.00,SummerDesignDay
357,20.233948718689289
397,19.776384996055083
437,19.579244087653657
477,23.69373419991669
517,24.000000000000015
2,1, 7,21, 0, 8, 0.00,10.00,SummerDesignDay
8,13.978831900527043
10,31267609.19723822
631,0.0
668,8255810.497296144
2,1, 7,21, 0, 8,10.00,20.00,SummerDesignDay
8,14.110321014287419
10,31267609.19723822
631,0.0
668,8851824.616290018
2,1, 7,21, 0, 8,20.00,30.00,SummerDesignDay
8,14.241191509616986
10,31267609.19723822
631,0.0
668,10189818.49164184
2,1, 7,21, 0, 8,30.00,40.00,SummerDesignDay
8,14.371447531304272
10,31267609.19723822
631,0.0
668,12706614.387396906
2,1, 7,21, 0, 8,40.00,50.00,SummerDesignDay
8,14.501093766564925
10,31267609.19723822
631,0.0
668,13125038.322098302
2,1, 7,21, 0, 8,50.00,60.00,SummerDesignDay
8,14.630134792273804
10,31267609.19723822
631,0.0
668,14418925.069782377
2,1, 7,21, 0, 8, 0.00,60.00,SummerDesignDay
357,20.804277430118135
397,20.35633469872236
437,20.16108426685881
477,23.960665689988006
517,24.000000000000019
2,1, 7,21, 0, 9, 0.00,10.00,SummerDesignDay
8,14.773641492809972
10,31267609.19723822
631,0.0
668,15643163.660775438
2,1, 7,21, 0, 9,10.00,20.00,SummerDesignDay
8,14.91640948124148
10,31267609.19723822
631,0.0
668,16863291.75179938
2,1, 7,21, 0, 9,20.00,30.00,SummerDesignDay
8,15.05843890714102
10,31267609.19723822
631,0.0
668,18089493.570374304
2,1, 7,21, 0, 9,30.00,40.00,SummerDesignDay
8,15.199735893563798
10,31267609.19723822
631,0.0
668,19322308.35788495
2,1, 7,21, 0, 9,40.00,50.00,SummerDesignDay
8,15.340306256439395
10,31267609.19723822
631,0.0
668,20561387.17230114
2,1, 7,21, 0, 9,50.00,60.00,SummerDesignDay
8,15.48015101768072
10,31267609.19723822
631,0.0
668,21813056.394150787
2,1, 7,21, 0, 9, 0.00,60.00,SummerDesignDay
357,21.948735431849774
397,21.519545930042758
437,21.330858930430276
477,23.999999988115733
517,24.0
2,1, 7,21, 0,10, 0.00,10.00,SummerDesignDay
8,15.60467292907716
10,77739491.94893433
631,0.0
668,23045010.997913835
2,1, 7,21, 0,10,10.00,20.00,SummerDesignDay
8,15.72862731650033
10,77739491.94893433
631,0.0
668,48489438.66146728
2,1, 7,21, 0,10,20.00,30.00,SummerDesignDay
8,15.852017409284228
10,77739491.94893433
631,0.0
668,69356935.83469358
2,1, 7,21, 0,10,30.00,40.00,SummerDesignDay
8,15.974848118364367
10,77739491.94893433
631,0.0
668,79921313.69864717
2,1, 7,21, 0,10,40.00,50.00,SummerDesignDay
8,16.097123145563505
10,77739491.94893433
631,0.0
668,82976706.7959348
2,1, 7,21, 0,10,50.00,60.00,SummerDesignDay
8,16.218846351168599
10,77739491.94893433
631,0.0
668,90756694.50193104
2,1, 7,21, 0,10, 0.00,60.00,SummerDesignDay
357,23.876235264419014
397,23.73359954880928
437,23.606652400333237
477,24.0
517,24.00000000000001
2,1, 7,21, 0,11, 0.00,10.00,SummerDesignDay
8,16.325793027093189
10,100975433.3247824
631,0.0
668,117725934.86867625
2,1, 7,21, 0,11,10.00,20.00,SummerDesignDay
8,16.432322158488288
10,100975433.3247824
631,0.0
668,124175086.83394225
2,1, 7,21, 0,11,20.00,30.00,SummerDesignDay
8,16.538424180249178
10,100975433.3247824
631,0.0
668,128021398.55095165
2,1, 7,21, 0,11,30.00,40.00,SummerDesignDay
8,16.644108396469087
10,100975433.3247824
631,0.0
668,131967602.88559807
2,1, 7,21, 0,11,40.00,50.00,SummerDesignDay
8,16.749376736593655
10,100975433.3247824
631,0.0
668,135564956.34736926
2,1, 7,21, 0,11,50.00,60.00,SummerDesignDay
8,16.854232613237156
10,100975433.3247824
631,0.0
668,138970610.58520324
2,1, 7,21, 0,11, 0.00,60.00,SummerDesignDay
357,23.999999999987965
397,23.999999999684893
437,23.99999999355397
477,24.000000000000015
517,24.000000000000015
2,1, 7,21, 0,12, 0.00,10.00,SummerDesignDay
8,16.92390823520069
10,124211374.70063046
631,0.0
668,173896341.54464085
2,1, 7,21, 0,12,10.00,20.00,SummerDesignDay
8,16.99340178950456
10,124211374.70063046
631,0.0
668,179762043.37883485
2,1, 7,21, 0,12,20.00,30.00,SummerDesignDay
8,17.06272006743463
10,124211374.70063046
631,0.0
668,182844643.46870224
2,1, 7,21, 0,12,30.00,40.00,SummerDesignDay
8,17.131853229172639
10,124211374.70063046
631,0.0
668,186110133.73854257
2,1, 7,21, 0,12,40.00,50.00,SummerDesignDay
8,17.200807172194087
10,124211374.70063046
631,0.0
668,188931200.5673887
2,1, 7,21, 0,12,50.00,60.00,SummerDesignDay
8,17.269582116758607
10,124211374.70063046
631,0.0
668,191494713.79722534
2,1, 7,21, 0,12, 0.00,60.00,SummerDesignDay
357,24.0
397,24.000000000000033
437,24.000000000000026
477,24.000000000000026
517,24.0
2,1, 7,21, 0,13, 0.00,10.00,SummerDesignDay
8,17.32447360221357
10,124211374.70063046
631,0.0
668,215940616.90420164
2,1, 7,21, 0,13,10.00,20.00,SummerDesignDay
8,17.379251291230806
10,124211374.70063046
631,0.0
668,219920708.2419737
2,1, 7,21, 0,13,20.00,30.00,SummerDesignDay
8,17.433921312061729
10,124211374.70063046
631,0.0
668,223177589.61418129
2,1, 7,21, 0,13,30.00,40.00,SummerDesignDay
8,17.488473222557489
10,124211374.70063046
631,0.0
668,226226697.16079725
2,1, 7,21, 0,13,40.00,50.00,SummerDesignDay
8,17.542913447755134
10,124211374.70063046
631,0.0
668,228728373.71123723
2,1, 7,21, 0,13,50.00,60.00,SummerDesignDay
8,17.59724609886134
10,124211374.70063046
631,0.0
668,230865079.75883497
2,1, 7,21, 0,13, 0.00,60.00,SummerDesignDay
357,24.000000000000058
397,24.000000000000044
437,24.000000000000019
477,24.00000000000003
517,24.00000000000003
2,1, 7,21, 0,14, 0.00,10.00,SummerDesignDay
8,17.6311450462694
10,124211374.70063046
631,0.0
668,226163331.3516738
2,1, 7,21, 0,14,10.00,20.00,SummerDesignDay
8,17.665000449016245
10,124211374.70063046
631,0.0
668,226808835.01312668
2,1, 7,21, 0,14,20.00,30.00,SummerDesignDay
8,17.698812743128934
10,124211374.70063046
631,0.0
668,227609962.1444593
2,1, 7,21, 0,14,30.00,40.00,SummerDesignDay
8,17.732582050940107
10,124211374.70063046
631,0.0
668,228396240.54803477
2,1, 7,21, 0,14,40.00,50.00,SummerDesignDay
8,17.766307345121004
10,124211374.70063046
631,0.0
668,229243222.42448933
2,1, 7,21, 0,14,50.00,60.00,SummerDesignDay
8,17.79999023167558
10,124211374.70063046
631,0.0
668,230137698.4174473
2,1, 7,21, 0,14, 0.00,60.00,SummerDesignDay
357,24.000000000000005
397,24.00000000000003
437,24.000000000000005
477,24.0
517,24.0
2,1, 7,21, 0,15, 0.00,10.00,SummerDesignDay
8,17.79999023167558
10,124211374.70063046
631,0.0
668,211932552.2153172
2,1, 7,21, 0,15,10.00,20.00,SummerDesignDay
8,17.79999023167558
10,124211374.70063046
631,0.0
668,210661268.06906814
2,1, 7,21, 0,15,20.00,30.00,SummerDesignDay
8,17.79999023167558
10,124211374.70063046
631,0.0
668,210008631.5779029
2,1, 7,21, 0,15,30.00,40.00,SummerDesignDay
8,17.79999023167558
10,124211374.70063046
631,0.0
668,209357387.43608318
2,1, 7,21, 0,15,40.00,50.00,SummerDesignDay
8,17.79999023167558
10,124211374.70063046
631,0.0
668,208911955.89621405
2,1, 7,21, 0,15,50.00,60.00,SummerDesignDay
8,17.79999023167558
10,124211374.70063046
631,0.0
668,208622181.93645383
2,1, 7,21, 0,15, 0.00,60.00,SummerDesignDay
357,24.000000000000026
397,23.99999999999996
437,24.00000000000003
477,24.00000000000003
517,24.00000000000003
2,1, 7,21, 0,16, 0.00,10.00,SummerDesignDay
8,17.759562446305357
10,124211374.70063046
631,0.0
668,190783918.39985449
2,1, 7,21, 0,16,10.00,20.00,SummerDesignDay
8,17.71907809634183
10,124211374.70063046
631,0.0
668,188534307.01018263
2,1, 7,21, 0,16,20.00,30.00,SummerDesignDay
8,17.67853788661001
10,124211374.70063046
631,0.0
668,186856769.6591996
2,1, 7,21, 0,16,30.00,40.00,SummerDesignDay
8,17.63791796367351
10,124211374.70063046
631,0.0
668,185197975.0980996
2,1, 7,21, 0,16,40.00,50.00,SummerDesignDay
8,17.59724609886134
10,124211374.70063046
631,0.0
668,183696969.41226695
2,1, 7,21, 0,16,50.00,60.00,SummerDesignDay
8,17.55650676726033
10,124211374.70063046
631,0.0
668,182311867.558213
2,1, 7,21, 0,16, 0.00,60.00,SummerDesignDay
357,24.00000000000004
397,23.999999999999987
437,24.0
477,24.000000000000019
517,24.0
2,1, 7,21, 0,17, 0.00,10.00,SummerDesignDay
8,17.50209486331892
10,124211374.70063046
631,0.0
668,180636841.00016309
2,1, 7,21, 0,17,10.00,20.00,SummerDesignDay
8,17.447570789624618
10,124211374.70063046
631,0.0
668,179015914.4559276
2,1, 7,21, 0,17,20.00,30.00,SummerDesignDay
8,17.392929544208135
10,124211374.70063046
631,0.0
668,177430092.19851143
2,1, 7,21, 0,17,30.00,40.00,SummerDesignDay
8,17.33818013976614
10,124211374.70063046
631,0.0
668,175868788.7982979
2,1, 7,21, 0,17,40.00,50.00,SummerDesignDay
8,17.283317298559309
10,124211374.70063046
631,0.0
668,174325145.31392379
2,1, 7,21, 0,17,50.00,60.00,SummerDesignDay
8,17.22833552437677
10,124211374.70063046
631,0.0
668,172798997.6628665
2,1, 7,21, 0,17, 0.00,60.00,SummerDesignDay
357,24.000000000000087
397,24.00000000000003
437,24.000000000000026
477,24.000000000000026
517,23.999999999999969
2,1, 7,21, 0,18, 0.00,10.00,SummerDesignDay
8,17.159453019160176
10,124211374.70063046
631,0.0
668,175825876.23369227
2,1, 7,21, 0,18,10.00,20.00,SummerDesignDay
8,17.090391773337136
10,124211374.70063046
631,0.0
668,174332822.3725339
2,1, 7,21, 0,18,20.00,30.00,SummerDesignDay
8,17.021151077964786
10,124211374.70063046
631,0.0
668,172643919.91129283
2,1, 7,21, 0,18,30.00,40.00,SummerDesignDay
8,16.951729380464653
10,124211374.70063046
631,0.0
668,170965204.23604904
2,1, 7,21, 0,18,40.00,50.00,SummerDesignDay
8,16.882126503829249
10,124211374.70063046
631,0.0
668,169233356.6714422
2,1, 7,21, 0,18,50.00,60.00,SummerDesignDay
8,16.812341807494034
10,124211374.70063046
631,0.0
668,167454213.16632689
2,1, 7,21, 0,18, 0.00,60.00,SummerDesignDay
357,24.000000000000026
397,24.00000000000003
437,24.000000000000026
477,24.000000000000019
517,24.000000000000019
2,1, 7,21, 0,19, 0.00,10.00,SummerDesignDay
8,16.707321072823203
10,124211374.70063046
631,0.0
668,180381446.4279989
2,1, 7,21, 0,19,10.00,20.00,SummerDesignDay
8,16.601881826644556
10,124211374.70063046
631,0.0
668,179019326.30343683
2,1, 7,21, 0,19,20.00,30.00,SummerDesignDay
8,16.496030555252849
10,124211374.70063046
631,0.0
668,177152428.64144645
2,1, 7,21, 0,19,30.00,40.00,SummerDesignDay
8,16.389760181474104
10,124211374.70063046
631,0.0
668,175212288.75758279
2,1, 7,21, 0,19,40.00,50.00,SummerDesignDay
8,16.283067654262039
10,124211374.70063046
631,0.0
668,172997349.48464865
2,1, 7,21, 0,19,50.00,60.00,SummerDesignDay
8,16.17595057957811
10,124211374.70063046
631,0.0
668,170577563.28226424
2,1, 7,21, 0,19, 0.00,60.00,SummerDesignDay
357,24.00000000000007
397,24.000000000000005
437,24.000000000000019
477,24.00000000000003
517,24.00000000000001
2,1, 7,21, 0,20, 0.00,10.00,SummerDesignDay
8,16.097123145563505
10,124211374.70063046
631,0.0
668,186017036.9012665
2,1, 7,21, 0,20,10.00,20.00,SummerDesignDay
8,16.018070242471564
10,124211374.70063046
631,0.0
668,185758358.42889438
2,1, 7,21, 0,20,20.00,30.00,SummerDesignDay
8,15.938779752340516
10,124211374.70063046
631,0.0
668,184902358.73924677
2,1, 7,21, 0,20,30.00,40.00,SummerDesignDay
8,15.85926152575189
10,124211374.70063046
631,0.0
668,183895630.17814798
2,1, 7,21, 0,20,40.00,50.00,SummerDesignDay
8,15.779503718563929
10,124211374.70063046
631,0.0
668,182531231.9479226
2,1, 7,21, 0,20,50.00,60.00,SummerDesignDay
8,15.699515709672767
10,124211374.70063046
631,0.0
668,180910341.11327324
2,1, 7,21, 0,20, 0.00,60.00,SummerDesignDay
357,24.00000000000008
397,23.999999999999984
437,24.000000000000058
477,24.000000000000019
517,24.000000000000019
2,1, 7,21, 0,21, 0.00,10.00,SummerDesignDay
8,15.63389147320404
10,124211374.70063046
631,0.0
668,179500026.21213449
2,1, 7,21, 0,21,10.00,20.00,SummerDesignDay
8,15.56810827419793
10,124211374.70063046
631,0.0
668,177996559.99638418
2,1, 7,21, 0,21,20.00,30.00,SummerDesignDay
8,15.502170882753524
10,124211374.70063046
631,0.0
668,176438386.86028869
2,1, 7,21, 0,21,30.00,40.00,SummerDesignDay
8,15.436068032613852
10,124211374.70063046
631,0.0
668,174844094.43584294
2,1, 7,21, 0,21,40.00,50.00,SummerDesignDay
8,15.369804371206009
10,124211374.70063046
631,0.0
668,173224145.24653775
2,1, 7,21, 0,21,50.00,60.00,SummerDesignDay
8,15.303384603594449
10,124211374.70063046
631,0.0
668,171497294.5918814
2,1, 7,21, 0,21, 0.00,60.00,SummerDesignDay
357,23.999999999999976
397,23.999999999999998
437,24.000000000000033
477,24.000000000000026
517,23.99999999999999
2,1, 7,21, 0,22, 0.00,10.00,SummerDesignDay
8,15.236797685071274
10,124211374.70063046
631,0.0
668,169748770.58925713
2,1, 7,21, 0,22,10.00,20.00,SummerDesignDay
8,15.170047891787942
10,124211374.70063046
631,0.0
668,167994118.98226599
2,1, 7,21, 0,22,20.00,30.00,SummerDesignDay
8,15.103134826860483
10,124211374.70063046
631,0.0
668,166234329.35577504
2,1, 7,21, 0,22,30.00,40.00,SummerDesignDay
8,15.036063385178485
10,124211374.70063046
631,0.0
668,164470679.05420206
2,1, 7,21, 0,22,40.00,50.00,SummerDesignDay
8,14.968821767219835
10,124211374.70063046
631,0.0
668,162703809.07747747
2,1, 7,21, 0,22,50.00,60.00,SummerDesignDay
8,14.90141525878635
10,124211374.70063046
631,0.0
668,160934584.52503226
2,1, 7,21, 0,22, 0.00,60.00,SummerDesignDay
357,24.00000000000011
397,24.000000000000026
437,24.00000000000004
477,24.00000000000003
517,24.00000000000001
2,1, 7,21, 0,23, 0.00,10.00,SummerDesignDay
8,14.848873673278373
10,124211374.70063046
631,0.0
668,141044390.98530767
2,1, 7,21, 0,23,10.00,20.00,SummerDesignDay
8,14.796237168136719
10,124211374.70063046
631,0.0
668,138328483.20259894
2,1, 7,21, 0,23,20.00,30.00,SummerDesignDay
8,14.743494321455645
10,124211374.70063046
631,0.0
668,136232682.90408755
2,1, 7,21, 0,23,30.00,40.00,SummerDesignDay
8,14.690649975253665
10,124211374.70063046
631,0.0
668,134149604.10249482
2,1, 7,21, 0,23,40.00,50.00,SummerDesignDay
8,14.637704281233117
10,124211374.70063046
631,0.0
668,132290809.54396862
2,1, 7,21, 0,23,50.00,60.00,SummerDesignDay
8,14.584656914839757
10,124211374.70063046
631,0.0
668,130600373.63225353
2,1, 7,21, 0,23, 0.00,60.00,SummerDesignDay
357,24.000000000000076
397,24.000000000000058
437,24.000000000000019
477,24.000000000000019
517,24.00000000000001
2,1, 7,21, 0,24, 0.00,10.00,SummerDesignDay
8,14.531507212058875
10,124211374.70063046
631,0.0
668,117289096.01403715
2,1, 7,21, 0,24,10.00,20.00,SummerDesignDay
8,14.47825496413355
10,124211374.70063046
631,0.0
668,114966159.40338169
2,1, 7,21, 0,24,20.00,30.00,SummerDesignDay
8,14.4249000133173
10,124211374.70063046
631,0.0
668,113117366.41312656
2,1, 7,21, 0,24,30.00,40.00,SummerDesignDay
8,14.371447531304272
10,124211374.70063046
631,0.0
668,111226019.95486751
2,1, 7,21, 0,24,40.00,50.00,SummerDesignDay
8,14.31788619902223
10,124211374.70063046
631,0.0
668,109370129.90887153
2,1, 7,21, 0,24,50.00,60.00,SummerDesignDay
8,14.264220970176066
10,124211374.70063046
631,0.0
668,107574630.81125681
2,1, 7,21, 0,24, 0.00,60.00,SummerDesignDay
357,24.00000000000004
397,24.000000000000055
437,24.00000000000004
477,24.000000000000015
517,24.000000000000019
3,1, 7,21, 0,SummerDesignDay
358,46.48269475325231,41.110989551869099, 2,25,57.196652030910239, 6,60
398,48.0102372234195,42.2263079860773,17,60,58.860451719906908, 6,60
438,49.041805281808567,42.64851351214523,17,60,59.58864898888068, 6,60
478,46.940584925735617,44.98184935404332,21,50,51.31324685606581, 6,60
518,49.38617950137717,48.3970802033337,23,20,52.049991305823457, 7,20
4,1, 7
7,22.2505,16.5,21, 5,60,28.9,21,14,60
1,FORT MCMURRAY AP ANN HTG 99.6% CONDNS DB,  56.65,-111.22,  -7.00, 369.10
2,1, 1,21, 0, 1, 0.00,10.00,WinterDesignDay
8,-36.2
10,124211374.70063046
631,396097369.88833919
668,0.0
2,1, 1,21, 0, 1,10.00,20.00,WinterDesignDay
8,-36.2
10,124211374.70063046
631,396387536.10664948
668,0.0
2,1, 1,21, 0, 1,20.00,30.00,WinterDesignDay
8,-36.2
10,124211374.70063046
631,396396645.6182528
668,0.0
2,1, 1,21, 0, 1,30.00,40.00,WinterDesignDay
8,-36.2
10,124211374.70063046
631,396444940.5008566
668,0.0
2,1, 1,21, 0, 1,40.00,50.00,WinterDesignDay
8,-36.2
10,124211374.70063046
631,396488885.4431503
668,0.0
2,1, 1,21, 0, 1,50.00,60.00,WinterDesignDay
8,-36.2
10,124211374.70063046
631,396524299.03671386
668,0.0
2,1, 1,21, 0, 1, 0.00,60.00,WinterDesignDay
357,22.000000000000044
397,22.00000000000003
437,22.000000000000033
477,22.000000000000015
517,22.00000000000001
2,1, 1,21, 0, 2, 0.00,10.00,WinterDesignDay
8,-36.2
10,77739491.94893433
631,351196135.37668719
668,0.0
2,1, 1,21, 0, 2,10.00,20.00,WinterDesignDay
8,-36.2
10,77739491.94893433
631,390948899.18178477
668,0.0
2,1, 1,21, 0, 2,20.00,30.00,WinterDesignDay
8,-36.2
10,77739491.94893433
631,420781641.0948081
668,0.0
2,1, 1,21, 0, 2,30.00,40.00,WinterDesignDay
8,-36.2
10,77739491.94893433
631,420419524.7089203
668,0.0
2,1, 1,21, 0, 2,40.00,50.00,WinterDesignDay
8,-36.2
10,77739491.94893433
631,422664669.3674214
668,0.0
2,1, 1,21, 0, 2,50.00,60.00,WinterDesignDay
8,-36.2
10,77739491.94893433
631,425284067.526885
668,0.0
2,1, 1,21, 0, 2, 0.00,60.00,WinterDesignDay
357,22.000000000000015
397,22.00000000000001
437,22.000000000000015
477,18.247142326750219
517,18.296358466402393
2,1, 1,21, 0, 3, 0.00,10.00,WinterDesignDay
8,-36.2
10,31267609.19723822
631,289346690.98865106
668,0.0
2,1, 1,21, 0, 3,10.00,20.00,WinterDesignDay
8,-36.2
10,31267609.19723822
631,379867218.89402577
668,0.0
2,1, 1,21, 0, 3,20.00,30.00,WinterDesignDay
8,-36.2
10,31267609.19723822
631,409155908.06314948
668,0.0
2,1, 1,21, 0, 3,30.00,40.00,WinterDesignDay
8,-36.2
10,31267609.19723822
631,418449690.35149529
668,0.0
2,1, 1,21, 0, 3,40.00,50.00,WinterDesignDay
8,-36.2
10,31267609.19723822
631,426814732.21631279
668,0.0
2,1, 1,21, 0, 3,50.00,60.00,WinterDesignDay
8,-36.2
10,31267609.19723822
631,428999812.37391486
668,0.0
2,1, 1,21, 0, 3, 0.00,60.00,WinterDesignDay
357,18.108047306150195
397,18.10645448988298
437,18.10541457423366
477,18.00000000000002
517,18.000000000000026
2,1, 1,21, 0, 4, 0.00,10.00,WinterDesignDay
8,-36.2
10,31267609.19723822
631,430584154.2382067
668,0.0
2,1, 1,21, 0, 4,10.00,20.00,WinterDesignDay
8,-36.2
10,31267609.19723822
631,431790617.1054344
668,0.0
2,1, 1,21, 0, 4,20.00,30.00,WinterDesignDay
8,-36.2
10,31267609.19723822
631,432695762.65184369
668,0.0
2,1, 1,21, 0, 4,30.00,40.00,WinterDesignDay
8,-36.2
10,31267609.19723822
631,433396997.11637869
668,0.0
2,1, 1,21, 0, 4,40.00,50.00,WinterDesignDay
8,-36.2
10,31267609.19723822
631,433926468.350604
668,0.0
2,1, 1,21, 0, 4,50.00,60.00,WinterDesignDay
8,-36.2
10,31267609.19723822
631,434328512.7816431
668,0.0
2,1, 1,21, 0, 4, 0.00,60.00,WinterDesignDay
357,18.000000000050105
397,18.000000000048649
437,18.000000000049356
477,18.00000000000003
517,18.000000000000033
2,1, 1,21, 0, 5, 0.00,10.00,WinterDesignDay
8,-36.2
10,31267609.19723822
631,434653681.2993968
668,0.0
2,1, 1,21, 0, 5,10.00,20.00,WinterDesignDay
8,-36.2
10,31267609.19723822
631,434897312.85983446
668,0.0
2,1, 1,21, 0, 5,20.00,30.00,WinterDesignDay
8,-36.2
10,31267609.19723822
631,435096487.0065998
668,0.0
2,1, 1,21, 0, 5,30.00,40.00,WinterDesignDay
8,-36.2
10,31267609.19723822
631,435244178.97119119
668,0.0
2,1, 1,21, 0, 5,40.00,50.00,WinterDesignDay
8,-36.2
10,31267609.19723822
631,435367876.7380594
668,0.0
2,1, 1,21, 0, 5,50.00,60.00,WinterDesignDay
8,-36.2
10,31267609.19723822
631,435472450.402488
668,0.0
2,1, 1,21, 0, 5, 0.00,60.00,WinterDesignDay
357,18.00000000000001
397,18.00000000000001
437,18.000000000000005
477,18.000000000000033
517,18.000000000000033
2,1, 1,21, 0, 6, 0.00,10.00,WinterDesignDay
8,-36.2
10,31267609.19723822
631,435544301.4144966
668,0.0
2,1, 1,21, 0, 6,10.00,20.00,WinterDesignDay
8,-36.2
10,31267609.19723822
631,435606026.4531491
668,0.0
2,1, 1,21, 0, 6,20.00,30.00,WinterDesignDay
8,-36.2
10,31267609.19723822
631,435661677.23662176
668,0.0
2,1, 1,21, 0, 6,30.00,40.00,WinterDesignDay
8,-36.2
10,31267609.19723822
631,435709258.30935397
668,0.0
2,1, 1,21, 0, 6,40.00,50.00,WinterDesignDay
8,-36.2
10,31267609.19723822
631,435749326.32673576
668,0.0
2,1, 1,21, 0, 6,50.00,60.00,WinterDesignDay
8,-36.2
10,31267609.19723822
631,435782999.423333
668,0.0
2,1, 1,21, 0, 6, 0.00,60.00,WinterDesignDay
357,18.000000000000015
397,18.000000000000005
437,18.000000000000005
477,18.000000000000019
517,18.000000000000033
2,1, 1,21, 0, 7, 0.00,10.00,WinterDesignDay
8,-36.2
10,31267609.19723822
631,435811383.638933
668,0.0
2,1, 1,21, 0, 7,10.00,20.00,WinterDesignDay
8,-36.2
10,31267609.19723822
631,435835430.45199808
668,0.0
2,1, 1,21, 0, 7,20.00,30.00,WinterDesignDay
8,-36.2
10,31267609.19723822
631,435850247.23255786
668,0.0
2,1, 1,21, 0, 7,30.00,40.00,WinterDesignDay
8,-36.2
10,31267609.19723822
631,435862640.31009486
668,0.0
2,1, 1,21, 0, 7,40.00,50.00,WinterDesignDay
8,-36.2
10,31267609.19723822
631,435875302.0583745
668,0.0
2,1, 1,21, 0, 7,50.00,60.00,WinterDesignDay
8,-36.2
10,31267609.19723822
631,435887367.99744746
668,0.0
2,1, 1,21, 0, 7, 0.00,60.00,WinterDesignDay
357,18.000000000000015
397,18.000000000000008
437,18.000000000000008
477,18.000000000000026
517,18.00000000000003
2,1, 1,21, 0, 8, 0.00,10.00,WinterDesignDay
8,-36.2
10,31267609.19723822
631,493409816.20435419
668,0.0
2,1, 1,21, 0, 8,10.00,20.00,WinterDesignDay
8,-36.2
10,31267609.19723822
631,408840707.0360829
668,0.0
2,1, 1,21, 0, 8,20.00,30.00,WinterDesignDay
8,-36.2
10,31267609.19723822
631,460480020.89883026
668,0.0
2,1, 1,21, 0, 8,30.00,40.00,WinterDesignDay
8,-36.2
10,31267609.19723822
631,447246648.2781657
668,0.0
2,1, 1,21, 0, 8,40.00,50.00,WinterDesignDay
8,-36.2
10,31267609.19723822
631,447152704.9579094
668,0.0
2,1, 1,21, 0, 8,50.00,60.00,WinterDesignDay
8,-36.2
10,31267609.19723822
631,446844828.8472479
668,0.0
2,1, 1,21, 0, 8, 0.00,60.00,WinterDesignDay
357,18.00000000000001
397,18.000000000000008
437,18.000000000000005
477,20.009571847363906
517,20.01438674906293
2,1, 1,21, 0, 9, 0.00,10.00,WinterDesignDay
8,-36.2
10,31267609.19723822
631,595988851.0925216
668,0.0
2,1, 1,21, 0, 9,10.00,20.00,WinterDesignDay
8,-36.2
10,31267609.19723822
631,379208640.39733758
668,0.0
2,1, 1,21, 0, 9,20.00,30.00,WinterDesignDay
8,-36.2
10,31267609.19723822
631,511461720.21420988
668,0.0
2,1, 1,21, 0, 9,30.00,40.00,WinterDesignDay
8,-36.2
10,31267609.19723822
631,479988371.4412304
668,0.0
2,1, 1,21, 0, 9,40.00,50.00,WinterDesignDay
8,-36.2
10,31267609.19723822