Program Version,EnergyPlus, Version 8.9.0-eba93e8e1b, YMD=2019.03.05 18:46
1,5,Environment Title[],Latitude[deg],Longitude[deg],Time Zone[],Elevation[m]
2,8,Day of Simulation[],Month[],Day of Month[],DST Indicator[1=yes 0=no],Hour[],StartMinute[],EndMinute[],DayType
3,5,Cumulative Day of Simulation[],Month[],Day of Month[],DST Indicator[1=yes 0=no],DayType  ! When Daily Report Variables Requested
4,2,Cumulative Days of Simulation[],Month[]  ! When Monthly Report Variables Requested
5,1,Cumulative Days of Simulation[] ! When Run Period Report Variables Requested
6,1,Calendar Year of Simulation[] ! When Annual Report Variables Requested
7,9,Environment,Site Outdoor Air Drybulb Temperature [C] !Monthly [Value,Min,Day,Hour,Minute,Max,Day,Hour,Minute]
8,1,Environment,Site Outdoor Air Wetbulb Temperature [C] !TimeStep
5319,1,- UNDEFINED --SPACE FUNCTION ZN,Zone Air Temperature [C] !Hourly
5320,7,- UNDEFINED --SPACE FUNCTION ZN,Zone Air Relative Humidity [%] !Daily [Value,Min,Hour,Minute,Max,Hour,Minute]
5359,1,ATRIUM - H < 13M-SPACE FUNCTION ZN,Zone Air Temperature [C] !Hourly
5360,7,ATRIUM - H < 13M-SPACE FUNCTION ZN,Zone Air Relative Humidity [%] !Daily [Value,Min,Hour,Minute,Max,Hour,Minute]
5399,1,ATRIUM - H > 13M-SPACE FUNCTION ZN,Zone Air Temperature [C] !Hourly
5400,7,ATRIUM - H > 13M-SPACE FUNCTION ZN,Zone Air Relative Humidity [%] !Daily [Value,Min,Hour,Minute,Max,Hour,Minute]
5439,1,AUDIENCE - AUDITORIUM-SPACE FUNCTION ZN,Zone Air Temperature [C] !Hourly
5440,7,AUDIENCE - AUDITORIUM-SPACE FUNCTION ZN,Zone Air Relative Humidity [%] !Daily [Value,Min,Hour,Minute,Max,Hour,Minute]
5479,1,AUDIENCE - MOTION PICTURE-SPACE FUNCTION ZN,Zone Air Temperature [C] !Hourly
5480,7,AUDIENCE - MOTION PICTURE-SPACE FUNCTION ZN,Zone Air Relative Humidity [%] !Daily [Value,Min,Hour,Minute,Max,Hour,Minute]
5519,1,AUDIENCE - PERFORMANCE ARTS-SPACE FUNCTION ZN,Zone Air Temperature [C] !Hourly
5520,7,AUDIENCE - PERFORMANCE ARTS-SPACE FUNCTION ZN,Zone Air Relative Humidity [%] !Daily [Value,Min,Hour,Minute,Max,Hour,Minute]
5559,1,AUTOMOTIVE - REPAIR-SPACE FUNCTION ZN,Zone Air Temperature [C] !Hourly
5560,7,AUTOMOTIVE - REPAIR-SPACE FUNCTION ZN,Zone Air Relative Humidity [%] !Daily [Value,Min,Hour,Minute,Max,Hour,Minute]
5599,1,BANK - BANKING AND OFFICES-SPACE FUNCTION ZN,Zone Air Temperature [C] !Hourly
5600,7,BANK - BANKING AND OFFICES-SPACE FUNCTION ZN,Zone Air Relative Humidity [%] !Daily [Value,Min,Hour,Minute,Max,Hour,Minute]
5639,1,CLASSROOM/LECTURE/TRAINING-SPACE FUNCTION ZN,Zone Air Temperature [C] !Hourly
5640,7,CLASSROOM/LECTURE/TRAINING-SPACE FUNCTION ZN,Zone Air Relative Humidity [%] !Daily [Value,Min,Hour,Minute,Max,Hour,Minute]
5679,1,CONF./MEET./MULTI-PURPOSE-SPACE FUNCTION ZN,Zone Air Temperature [C] !Hourly
5680,7,CONF./MEET./MULTI-PURPOSE-SPACE FUNCTION ZN,Zone Air Relative Humidity [%] !Daily [Value,Min,Hour,Minute,Max,Hour,Minute]
5719,1,CONVENTION CENTRE - AUDIENCE-SPACE FUNCTION ZN,Zone Air Temperature [C] !Hourly
5720,7,CONVENTION CENTRE - AUDIENCE-SPACE FUNCTION ZN,Zone Air Relative Humidity [%] !Daily [Value,Min,Hour,Minute,Max,Hour,Minute]
5759,1,CONVENTION CENTRE - EXHIBIT-SPACE FUNCTION ZN,Zone Air Temperature [C] !Hourly
5760,7,CONVENTION CENTRE - EXHIBIT-SPACE FUNCTION ZN,Zone Air Relative Humidity [%] !Daily [Value,Min,Hour,Minute,Max,Hour,Minute]
5799,1,COURTHOUSE - CELL-SPACE FUNCTION ZN,Zone Air Temperature [C] !Hourly
5800,7,COURTHOUSE - CELL-SPACE FUNCTION ZN,Zone Air Relative Humidity [%] !Daily [Value,Min,Hour,Minute,Max,Hour,Minute]
5839,1,COURTHOUSE - CHAMBERS-SPACE FUNCTION ZN,Zone Air Temperature [C] !Hourly
5840,7,COURTHOUSE - CHAMBERS-SPACE FUNCTION ZN,Zone Air Relative Humidity [%] !Daily [Value,Min,Hour,Minute,Max,Hour,Minute]
5879,1,COURTHOUSE - COURTROOM-SPACE FUNCTION ZN,Zone Air Temperature [C] !Hourly
5880,7,COURTHOUSE - COURTROOM-SPACE FUNCTION ZN,Zone Air Relative Humidity [%] !Daily [Value,Min,Hour,Minute,Max,Hour,Minute]
5919,1,DINING - BAR LOUNGE/LEISURE-SPACE FUNCTION ZN,Zone Air Temperature [C] !Hourly
5920,7,DINING - BAR LOUNGE/LEISURE-SPACE FUNCTION ZN,Zone Air Relative Humidity [%] !Daily [Value,Min,Hour,Minute,Max,Hour,Minute]
5959,1,DINING - FAMILY SPACE-SPACE FUNCTION ZN,Zone Air Temperature [C] !Hourly
5960,7,DINING - FAMILY SPACE-SPACE FUNCTION ZN,Zone Air Relative Humidity [%] !Daily [Value,Min,Hour,Minute,Max,Hour,Minute]
5999,1,DINING - OTHER-SPACE FUNCTION ZN,Zone Air Temperature [C] !Hourly
6000,7,DINING - OTHER-SPACE FUNCTION ZN,Zone Air Relative Humidity [%] !Daily [Value,Min,Hour,Minute,Max,Hour,Minute]
6039,1,DORMITORY - LIVING QUARTERS-SPACE FUNCTION ZN,Zone Air Temperature [C] !Hourly
6040,7,DORMITORY - LIVING QUARTERS-SPACE FUNCTION ZN,Zone Air Relative Humidity [%] !Daily [Value,Min,Hour,Minute,Max,Hour,Minute]
6079,1,DRESS./FITT. - PERFORMANCE ARTS-SPACE FUNCTION ZN,Zone Air Temperature [C] !Hourly
6080,7,DRESS./FITT. - PERFORMANCE ARTS-SPACE FUNCTION ZN,Zone Air Relative Humidity [%] !Daily [Value,Min,Hour,Minute,Max,Hour,Minute]
6119,1,DWELLING UNIT(S)-SPACE FUNCTION ZN,Zone Air Temperature [C] !Hourly
6120,7,DWELLING UNIT(S)-SPACE FUNCTION ZN,Zone Air Relative Humidity [%] !Daily [Value,Min,Hour,Minute,Max,Hour,Minute]
6159,1,FIRE STATION - ENGINE ROOM-SPACE FUNCTION ZN,Zone Air Temperature [C] !Hourly
6160,7,FIRE STATION - ENGINE ROOM-SPACE FUNCTION ZN,Zone Air Relative Humidity [%] !Daily [Value,Min,Hour,Minute,Max,Hour,Minute]
6199,1,FIRE STATION - QUARTERS-SPACE FUNCTION ZN,Zone Air Temperature [C] !Hourly
6200,7,FIRE STATION - QUARTERS-SPACE FUNCTION ZN,Zone Air Relative Humidity [%] !Daily [Value,Min,Hour,Minute,Max,Hour,Minute]
6239,1,FOOD PREPARATION - VENTED-SPACE FUNCTION ZN,Zone Air Temperature [C] !Hourly
6240,7,FOOD PREPARATION - VENTED-SPACE FUNCTION ZN,Zone Air Relative Humidity [%] !Daily [Value,Min,Hour,Minute,Max,Hour,Minute]
6279,1,FOOD PREPARATION-SPACE FUNCTION ZN,Zone Air Temperature [C] !Hourly
6280,7,FOOD PREPARATION-SPACE FUNCTION ZN,Zone Air Relative Humidity [%] !Daily [Value,Min,Hour,Minute,Max,Hour,Minute]
6319,1,GYM - AUDIENCE-SPACE FUNCTION ZN,Zone Air Temperature [C] !Hourly
6320,7,GYM - AUDIENCE-SPACE FUNCTION ZN,Zone Air Relative Humidity [%] !Daily [Value,Min,Hour,Minute,Max,Hour,Minute]
6359,1,GYM - FITNESS-SPACE FUNCTION ZN,Zone Air Temperature [C] !Hourly
6360,7,GYM - FITNESS-SPACE FUNCTION ZN,Zone Air Relative Humidity [%] !Daily [Value,Min,Hour,Minute,Max,Hour,Minute]
6399,1,GYM - PLAY-SPACE FUNCTION ZN,Zone Air Temperature [C] !Hourly
6400,7,GYM - PLAY-SPACE FUNCTION ZN,Zone Air Relative Humidity [%] !Daily [Value,Min,Hour,Minute,Max,Hour,Minute]
6439,1,HOSPITAL - EMERGENCY-SPACE FUNCTION ZN,Zone Air Temperature [C] !Hourly
6440,7,HOSPITAL - EMERGENCY-SPACE FUNCTION ZN,Zone Air Relative Humidity [%] !Daily [Value,Min,Hour,Minute,Max,Hour,Minute]
6479,1,HOSPITAL - EXAM-SPACE FUNCTION ZN,Zone Air Temperature [C] !Hourly
6480,7,HOSPITAL - EXAM-SPACE FUNCTION ZN,Zone Air Relative Humidity [%] !Daily [Value,Min,Hour,Minute,Max,Hour,Minute]
6519,1,HOSPITAL - LAUNDRY/WASHING-SPACE FUNCTION ZN,Zone Air Temperature [C] !Hourly
6520,7,HOSPITAL - LAUNDRY/WASHING-SPACE FUNCTION ZN,Zone Air Relative Humidity [%] !Daily [Value,Min,Hour,Minute,Max,Hour,Minute]
6559,1,HOSPITAL - LOUNGE/RECREATION-SPACE FUNCTION ZN,Zone Air Temperature [C] !Hourly
6560,7,HOSPITAL - LOUNGE/RECREATION-SPACE FUNCTION ZN,Zone Air Relative Humidity [%] !Daily [Value,Min,Hour,Minute,Max,Hour,Minute]
6599,1,HOSPITAL - MEDICAL SUPPLY - OCCSENS-SPACE FUNCTION ZN,Zone Air Temperature [C] !Hourly
6600,7,HOSPITAL - MEDICAL SUPPLY - OCCSENS-SPACE FUNCTION ZN,Zone Air Relative Humidity [%] !Daily [Value,Min,Hour,Minute,Max,Hour,Minute]
6639,1,HOSPITAL - MEDICAL SUPPLY-SPACE FUNCTION ZN,Zone Air Temperature [C] !Hourly
6640,7,HOSPITAL - MEDICAL SUPPLY-SPACE FUNCTION ZN,Zone Air Relative Humidity [%] !Daily [Value,Min,Hour,Minute,Max,Hour,Minute]
6679,1,HOSPITAL - NURSERY-SPACE FUNCTION ZN,Zone Air Temperature [C] !Hourly
6680,7,HOSPITAL - NURSERY-SPACE FUNCTION ZN,Zone Air Relative Humidity [%] !Daily [Value,Min,Hour,Minute,Max,Hour,Minute]
6719,1,HOSPITAL - NURSES' STATION-SPACE FUNCTION ZN,Zone Air Temperature [C] !Hourly
6720,7,HOSPITAL - NURSES' STATION-SPACE FUNCTION ZN,Zone Air Relative Humidity [%] !Daily [Value,Min,Hour,Minute,Max,Hour,Minute]
6759,1,HOSPITAL - OPERATING ROOM-SPACE FUNCTION ZN,Zone Air Temperature [C] !Hourly
6760,7,HOSPITAL - OPERATING ROOM-SPACE FUNCTION ZN,Zone Air Relative Humidity [%] !Daily [Value,Min,Hour,Minute,Max,Hour,Minute]
6799,1,HOSPITAL - PATIENT ROOM-SPACE FUNCTION ZN,Zone Air Temperature [C] !Hourly
6800,7,HOSPITAL - PATIENT ROOM-SPACE FUNCTION ZN,Zone Air Relative Humidity [%] !Daily [Value,Min,Hour,Minute,Max,Hour,Minute]
6839,1,HOSPITAL - PHARMACY-SPACE FUNCTION ZN,Zone Air Temperature [C] !Hourly
6840,7,HOSPITAL - PHARMACY-SPACE FUNCTION ZN,Zone Air Relative Humidity [%] !Daily [Value,Min,Hour,Minute,Max,Hour,Minute]
6879,1,HOSPITAL - PHYSICAL THERAPY-SPACE FUNCTION ZN,Zone Air Temperature [C] !Hourly
6880,7,HOSPITAL - PHYSICAL THERAPY-SPACE FUNCTION ZN,Zone Air Relative Humidity [%] !Daily [Value,Min,Hour,Minute,Max,Hour,Minute]
6919,1,HOSPITAL - RADIOLOGY/IMAGING-SPACE FUNCTION ZN,Zone Air Temperature [C] !Hourly
6920,7,HOSPITAL - RADIOLOGY/IMAGING-SPACE FUNCTION ZN,Zone Air Relative Humidity [%] !Daily [Value,Min,Hour,Minute,Max,Hour,Minute]
6959,1,HOSPITAL - RECOVERY-SPACE FUNCTION ZN,Zone Air Temperature [C] !Hourly
6960,7,HOSPITAL - RECOVERY-SPACE FUNCTION ZN,Zone Air Relative Humidity [%] !Daily [Value,Min,Hour,Minute,Max,Hour,Minute]
6999,1,HOTEL/MOTEL - DINING-SPACE FUNCTION ZN,Zone Air Temperature [C] !Hourly
7000,7,HOTEL/MOTEL - DINING-SPACE FUNCTION ZN,Zone Air Relative Humidity [%] !Daily [Value,Min,Hour,Minute,Max,Hour,Minute]
7039,1,HOTEL/MOTEL - LOBBY-SPACE FUNCTION ZN,Zone Air Temperature [C] !Hourly
7040,7,HOTEL/MOTEL - LOBBY-SPACE FUNCTION ZN,Zone Air Relative Humidity [%] !Daily [Value,Min,Hour,Minute,Max,Hour,Minute]
7079,1,HOTEL/MOTEL - ROOMS-SPACE FUNCTION ZN,Zone Air Temperature [C] !Hourly
7080,7,HOTEL/MOTEL - ROOMS-SPACE FUNCTION ZN,Zone Air Relative Humidity [%] !Daily [Value,Min,Hour,Minute,Max,Hour,Minute]
7119,1,HWAY LODGING - DINING-SPACE FUNCTION ZN,Zone Air Temperature [C] !Hourly
7120,7,HWAY LODGING - DINING-SPACE FUNCTION ZN,Zone Air Relative Humidity [%] !Daily [Value,Min,Hour,Minute,Max,Hour,Minute]
7159,1,HWAY LODGING - ROOMS-SPACE FUNCTION ZN,Zone Air Temperature [C] !Hourly
7160,7,HWAY LODGING - ROOMS-SPACE FUNCTION ZN,Zone Air Relative Humidity [%] !Daily [Value,Min,Hour,Minute,Max,Hour,Minute]
7199,1,LAB - CLASSROOMS-SPACE FUNCTION ZN,Zone Air Temperature [C] !Hourly
7200,7,LAB - CLASSROOMS-SPACE FUNCTION ZN,Zone Air Relative Humidity [%] !Daily [Value,Min,Hour,Minute,Max,Hour,Minute]
7239,1,LAB - RESEARCH-SPACE FUNCTION ZN,Zone Air Temperature [C] !Hourly
7240,7,LAB - RESEARCH-SPACE FUNCTION ZN,Zone Air Relative Humidity [%] !Daily [Value,Min,Hour,Minute,Max,Hour,Minute]
7279,1,LIBRARY - CATALOGING-SPACE FUNCTION ZN,Zone Air Temperature [C] !Hourly
7280,7,LIBRARY - CATALOGING-SPACE FUNCTION ZN,Zone Air Relative Humidity [%] !Daily [Value,Min,Hour,Minute,Max,Hour,Minute]
7319,1,LIBRARY - READING-SPACE FUNCTION ZN,Zone Air Temperature [C] !Hourly
7320,7,LIBRARY - READING-SPACE FUNCTION ZN,Zone Air Relative Humidity [%] !Daily [Value,Min,Hour,Minute,Max,Hour,Minute]
7359,1,LIBRARY - STACKS-SPACE FUNCTION ZN,Zone Air Temperature [C] !Hourly
7360,7,LIBRARY - STACKS-SPACE FUNCTION ZN,Zone Air Relative Humidity [%] !Daily [Value,Min,Hour,Minute,Max,Hour,Minute]
7399,1,LOBBY - ELEVATOR-SPACE FUNCTION ZN,Zone Air Temperature [C] !Hourly
7400,7,LOBBY - ELEVATOR-SPACE FUNCTION ZN,Zone Air Relative Humidity [%] !Daily [Value,Min,Hour,Minute,Max,Hour,Minute]
7439,1,LOBBY - MOTION PICTURE-SPACE FUNCTION ZN,Zone Air Temperature [C] !Hourly
7440,7,LOBBY - MOTION PICTURE-SPACE FUNCTION ZN,Zone Air Relative Humidity [%] !Daily [Value,Min,Hour,Minute,Max,Hour,Minute]
7479,1,LOBBY - OTHER-SPACE FUNCTION ZN,Zone Air Temperature [C] !Hourly
7480,7,LOBBY - OTHER-SPACE FUNCTION ZN,Zone Air Relative Humidity [%] !Daily [Value,Min,Hour,Minute,Max,Hour,Minute]
7519,1,LOBBY - PERFORMANCE ARTS-SPACE FUNCTION ZN,Zone Air Temperature [C] !Hourly
7520,7,LOBBY - PERFORMANCE ARTS-SPACE FUNCTION ZN,Zone Air Relative Humidity [%] !Daily [Value,Min,Hour,Minute,Max,Hour,Minute]
7559,1,LOCKER ROOM-SCH-A-SPACE FUNCTION ZN,Zone Air Temperature [C] !Hourly
7560,7,LOCKER ROOM-SCH-A-SPACE FUNCTION ZN,Zone Air Relative Humidity [%] !Daily [Value,Min,Hour,Minute,Max,Hour,Minute]
7599,1,LOCKER ROOM-SCH-B-SPACE FUNCTION ZN,Zone Air Temperature [C] !Hourly
7600,7,LOCKER ROOM-SCH-B-SPACE FUNCTION ZN,Zone Air Relative Humidity [%] !Daily [Value,Min,Hour,Minute,Max,Hour,Minute]
7639,1,LOCKER ROOM-SCH-C-SPACE FUNCTION ZN,Zone Air Temperature [C] !Hourly
7640,7,LOCKER ROOM-SCH-C-SPACE FUNCTION ZN,Zone Air Relative Humidity [%] !Daily [Value,Min,Hour,Minute,Max,Hour,Minute]
7679,1,LOCKER ROOM-SCH-D-SPACE FUNCTION ZN,Zone Air Temperature [C] !Hourly
7680,7,LOCKER ROOM-SCH-D-SPACE FUNCTION ZN,Zone Air Relative Humidity [%] !Daily [Value,Min,Hour,Minute,Max,Hour,Minute]
7719,1,LOCKER ROOM-SCH-E-SPACE FUNCTION ZN,Zone Air Temperature [C] !Hourly
7720,7,LOCKER ROOM-SCH-E-SPACE FUNCTION ZN,Zone Air Relative Humidity [%] !Daily [Value,Min,Hour,Minute,Max,Hour,Minute]
7759,1,LOCKER ROOM-SCH-F-SPACE FUNCTION ZN,Zone Air Temperature [C] !Hourly
7760,7,LOCKER ROOM-SCH-F-SPACE FUNCTION ZN,Zone Air Relative Humidity [%] !Daily [Value,Min,Hour,Minute,Max,Hour,Minute]
7799,1,LOCKER ROOM-SCH-G-SPACE FUNCTION ZN,Zone Air Temperature [C] !Hourly
7800,7,LOCKER ROOM-SCH-G-SPACE FUNCTION ZN,Zone Air Relative Humidity [%] !Daily [Value,Min,Hour,Minute,Max,Hour,Minute]
7839,1,LOCKER ROOM-SCH-H-SPACE FUNCTION ZN,Zone Air Temperature [C] !Hourly
7840,7,LOCKER ROOM-SCH-H-SPACE FUNCTION ZN,Zone Air Relative Humidity [%] !Daily [Value,Min,Hour,Minute,Max,Hour,Minute]
7879,1,LOCKER ROOM-SCH-I-SPACE FUNCTION ZN,Zone Air Temperature [C] !Hourly
7880,7,LOCKER ROOM-SCH-I-SPACE FUNCTION ZN,Zone Air Relative Humidity [%] !Daily [Value,Min,Hour,Minute,Max,Hour,Minute]
7919,1,LOUNGE/RECREATION-SPACE FUNCTION ZN,Zone Air Temperature [C] !Hourly
7920,7,LOUNGE/RECREATION-SPACE FUNCTION ZN,Zone Air Relative Humidity [%] !Daily [Value,Min,Hour,Minute,Max,Hour,Minute]
7959,1,MFG - 7.5 <= BAY H <= 15M-SPACE FUNCTION ZN,Zone Air Temperature [C] !Hourly
7960,7,MFG - 7.5 <= BAY H <= 15M-SPACE FUNCTION ZN,Zone Air Relative Humidity [%] !Daily [Value,Min,Hour,Minute,Max,Hour,Minute]
7999,1,MFG - BAY H < 7.5M-SPACE FUNCTION ZN,Zone Air Temperature [C] !Hourly
8000,7,MFG - BAY H < 7.5M-SPACE FUNCTION ZN,Zone Air Relative Humidity [%] !Daily [Value,Min,Hour,Minute,Max,Hour,Minute]
8039,1,MFG - BAY H > 15M-SPACE FUNCTION ZN,Zone Air Temperature [C] !Hourly
8040,7,MFG - BAY H > 15M-SPACE FUNCTION ZN,Zone Air Relative Humidity [%] !Daily [Value,Min,Hour,Minute,Max,Hour,Minute]
8079,1,MFG - DETAILED-SPACE FUNCTION ZN,Zone Air Temperature [C] !Hourly
8080,7,MFG - DETAILED-SPACE FUNCTION ZN,Zone Air Relative Humidity [%] !Daily [Value,Min,Hour,Minute,Max,Hour,Minute]
8119,1,MFG - EQUIPMENT-SPACE FUNCTION ZN,Zone Air Temperature [C] !Hourly
8120,7,MFG - EQUIPMENT-SPACE FUNCTION ZN,Zone Air Relative Humidity [%] !Daily [Value,Min,Hour,Minute,Max,Hour,Minute]
8159,1,MUSEUM - EXHIBITION-SPACE FUNCTION ZN,Zone Air Temperature [C] !Hourly
8160,7,MUSEUM - EXHIBITION-SPACE FUNCTION ZN,Zone Air Relative Humidity [%] !Daily [Value,Min,Hour,Minute,Max,Hour,Minute]
8199,1,MUSEUM - RESTORATION-SPACE FUNCTION ZN,Zone Air Temperature [C] !Hourly
8200,7,MUSEUM - RESTORATION-SPACE FUNCTION ZN,Zone Air Relative Humidity [%] !Daily [Value,Min,Hour,Minute,Max,Hour,Minute]
8239,1,OFFICE - ENCLOSED - OCCSENS-SPACE FUNCTION ZN,Zone Air Temperature [C] !Hourly
8240,7,OFFICE - ENCLOSED - OCCSENS-SPACE FUNCTION ZN,Zone Air Relative Humidity [%] !Daily [Value,Min,Hour,Minute,Max,Hour,Minute]
8279,1,OFFICE - ENCLOSED-SPACE FUNCTION ZN,Zone Air Temperature [C] !Hourly
8280,7,OFFICE - ENCLOSED-SPACE FUNCTION ZN,Zone Air Relative Humidity [%] !Daily [Value,Min,Hour,Minute,Max,Hour,Minute]
8319,1,OFFICE - OPEN PLAN-SPACE FUNCTION ZN,Zone Air Temperature [C] !Hourly
8320,7,OFFICE - OPEN PLAN-SPACE FUNCTION ZN,Zone Air Relative Humidity [%] !Daily [Value,Min,Hour,Minute,Max,Hour,Minute]
8359,1,PARKING GARAGE SPACE-SPACE FUNCTION ZN,Zone Air Temperature [C] !Hourly
8360,7,PARKING GARAGE SPACE-SPACE FUNCTION ZN,Zone Air Relative Humidity [%] !Daily [Value,Min,Hour,Minute,Max,Hour,Minute]
8399,1,PENITENTIARY - AUDIENCE-SPACE FUNCTION ZN,Zone Air Temperature [C] !Hourly
8400,7,PENITENTIARY - AUDIENCE-SPACE FUNCTION ZN,Zone Air Relative Humidity [%] !Daily [Value,Min,Hour,Minute,Max,Hour,Minute]
8439,1,PENITENTIARY - CLASSROOM-SPACE FUNCTION ZN,Zone Air Temperature [C] !Hourly
8440,7,PENITENTIARY - CLASSROOM-SPACE FUNCTION ZN,Zone Air Relative Humidity [%] !Daily [Value,Min,Hour,Minute,Max,Hour,Minute]
8479,1,PENITENTIARY - DINING-SPACE FUNCTION ZN,Zone Air Temperature [C] !Hourly
8480,7,PENITENTIARY - DINING-SPACE FUNCTION ZN,Zone Air Relative Humidity [%] !Daily [Value,Min,Hour,Minute,Max,Hour,Minute]
8519,1,POST OFFICE SORTING-SPACE FUNCTION ZN,Zone Air Temperature [C] !Hourly
8520,7,POST OFFICE SORTING-SPACE FUNCTION ZN,Zone Air Relative Humidity [%] !Daily [Value,Min,Hour,Minute,Max,Hour,Minute]
8559,1,RELIGIOUS - AUDIENCE-SPACE FUNCTION ZN,Zone Air Temperature [C] !Hourly
8560,7,RELIGIOUS - AUDIENCE-SPACE FUNCTION ZN,Zone Air Relative Humidity [%] !Daily [Value,Min,Hour,Minute,Max,Hour,Minute]
8599,1,RELIGIOUS - FELLOWSHIP HALL-SPACE FUNCTION ZN,Zone Air Temperature [C] !Hourly
8600,7,RELIGIOUS - FELLOWSHIP HALL-SPACE FUNCTION ZN,Zone Air Relative Humidity [%] !Daily [Value,Min,Hour,Minute,Max,Hour,Minute]
8639,1,RELIGIOUS - PULPIT/CHOIR-SPACE FUNCTION ZN,Zone Air Temperature [C] !Hourly
8640,7,RELIGIOUS - PULPIT/CHOIR-SPACE FUNCTION ZN,Zone Air Relative Humidity [%] !Daily [Value,Min,Hour,Minute,Max,Hour,Minute]
8679,1,RETAIL - DRESSING/FITTING-SPACE FUNCTION ZN,Zone Air Temperature [C] !Hourly
8680,7,RETAIL - DRESSING/FITTING-SPACE FUNCTION ZN,Zone Air Relative Humidity [%] !Daily [Value,Min,Hour,Minute,Max,Hour,Minute]
8719,1,RETAIL - MALL CONCOURSE-SPACE FUNCTION ZN,Zone Air Temperature [C] !Hourly
8720,7,RETAIL - MALL CONCOURSE-SPACE FUNCTION ZN,Zone Air Relative Humidity [%] !Daily [Value,Min,Hour,Minute,Max,Hour,Minute]
8759,1,RETAIL - SALES-SPACE FUNCTION ZN,Zone Air Temperature [C] !Hourly
8760,7,RETAIL - SALES-SPACE FUNCTION ZN,Zone Air Relative Humidity [%] !Daily [Value,Min,Hour,Minute,Max,Hour,Minute]
8799,1,SALES AREA-SPACE FUNCTION ZN,Zone Air Temperature [C] !Hourly
8800,7,SALES AREA-SPACE FUNCTION ZN,Zone Air Relative Humidity [%] !Daily [Value,Min,Hour,Minute,Max,Hour,Minute]
8839,1,SPORTS ARENA - AUDIENCE-SPACE FUNCTION ZN,Zone Air Temperature [C] !Hourly
8840,7,SPORTS ARENA - AUDIENCE-SPACE FUNCTION ZN,Zone Air Relative Humidity [%] !Daily [Value,Min,Hour,Minute,Max,Hour,Minute]
8879,1,SPORTS ARENA - COURT C1-SPACE FUNCTION ZN,Zone Air Temperature [C] !Hourly
8880,7,SPORTS ARENA - COURT C1-SPACE FUNCTION ZN,Zone Air Relative Humidity [%] !Daily [Value,Min,Hour,Minute,Max,Hour,Minute]
8919,1,SPORTS ARENA - COURT C2-SPACE FUNCTION ZN,Zone Air Temperature [C] !Hourly
8920,7,SPORTS ARENA - COURT C2-SPACE FUNCTION ZN,Zone Air Relative Humidity [%] !Daily [Value,Min,Hour,Minute,Max,Hour,Minute]
8959,1,SPORTS ARENA - COURT C3-SPACE FUNCTION ZN,Zone Air Temperature [C] !Hourly
8960,7,SPORTS ARENA - COURT C3-SPACE FUNCTION ZN,Zone Air Relative Humidity [%] !Daily [Value,Min,Hour,Minute,Max,Hour,Minute]
8999,1,SPORTS ARENA - COURT C4-SPACE FUNCTION ZN,Zone Air Temperature [C] !Hourly
9000,7,SPORTS ARENA - COURT C4-SPACE FUNCTION ZN,Zone Air Relative Humidity [%] !Daily [Value,Min,Hour,Minute,Max,Hour,Minute]
9039,1,SPORTS ARENA - RING-SPACE FUNCTION ZN,Zone Air Temperature [C] !Hourly
9040,7,SPORTS ARENA - RING-SPACE FUNCTION ZN,Zone Air Relative Humidity [%] !Daily [Value,Min,Hour,Minute,Max,Hour,Minute]
9079,1,STORAGE AREA - OCCSENS-SPACE FUNCTION ZN,Zone Air Temperature [C] !Hourly
9080,7,STORAGE AREA - OCCSENS-SPACE FUNCTION ZN,Zone Air Relative Humidity [%] !Daily [Value,Min,Hour,Minute,Max,Hour,Minute]
9119,1,STORAGE AREA - REFRIGERATED - OCCSENS-SPACE FUNCTION ZN,Zone Air Temperature [C] !Hourly
9120,7,STORAGE AREA - REFRIGERATED - OCCSENS-SPACE FUNCTION ZN,Zone Air Relative Humidity [%] !Daily [Value,Min,Hour,Minute,Max,Hour,Minute]
9159,1,STORAGE AREA - REFRIGERATED-SPACE FUNCTION ZN,Zone Air Temperature [C] !Hourly
9160,7,STORAGE AREA - REFRIGERATED-SPACE FUNCTION ZN,Zone Air Relative Humidity [%] !Daily [Value,Min,Hour,Minute,Max,Hour,Minute]
9199,1,STORAGE AREA-SPACE FUNCTION ZN,Zone Air Temperature [C] !Hourly
9200,7,STORAGE AREA-SPACE FUNCTION ZN,Zone Air Relative Humidity [%] !Daily [Value,Min,Hour,Minute,Max,Hour,Minute]
9239,1,TRANSP. BAGGAGE-SPACE FUNCTION ZN,Zone Air Temperature [C] !Hourly
9240,7,TRANSP. BAGGAGE-SPACE FUNCTION ZN,Zone Air Relative Humidity [%] !Daily [Value,Min,Hour,Minute,Max,Hour,Minute]
9279,1,TRANSP. CONCOURSE-SPACE FUNCTION ZN,Zone Air Temperature [C] !Hourly
9280,7,TRANSP. CONCOURSE-SPACE FUNCTION ZN,Zone Air Relative Humidity [%] !Daily [Value,Min,Hour,Minute,Max,Hour,Minute]
9319,1,TRANSP. COUNTER-SPACE FUNCTION ZN,Zone Air Temperature [C] !Hourly
9320,7,TRANSP. COUNTER-SPACE FUNCTION ZN,Zone Air Relative Humidity [%] !Daily [Value,Min,Hour,Minute,Max,Hour,Minute]
9359,1,TRANSP. SEATING-SPACE FUNCTION ZN,Zone Air Temperature [C] !Hourly
9360,7,TRANSP. SEATING-SPACE FUNCTION ZN,Zone Air Relative Humidity [%] !Daily [Value,Min,Hour,Minute,Max,Hour,Minute]
9399,1,WAREHOUSE - FINE - REFRIGERATED-SPACE FUNCTION ZN,Zone Air Temperature [C] !Hourly
9400,7,WAREHOUSE - FINE - REFRIGERATED-SPACE FUNCTION ZN,Zone Air Relative Humidity [%] !Daily [Value,Min,Hour,Minute,Max,Hour,Minute]
9439,1,WAREHOUSE - FINE-SPACE FUNCTION ZN,Zone Air Temperature [C] !Hourly
9440,7,WAREHOUSE - FINE-SPACE FUNCTION ZN,Zone Air Relative Humidity [%] !Daily [Value,Min,Hour,Minute,Max,Hour,Minute]
9479,1,WAREHOUSE - MED/BLK - REFRIGERATED-SPACE FUNCTION ZN,Zone Air Temperature [C] !Hourly
9480,7,WAREHOUSE - MED/BLK - REFRIGERATED-SPACE FUNCTION ZN,Zone Air Relative Humidity [%] !Daily [Value,Min,Hour,Minute,Max,Hour,Minute]
9519,1,WAREHOUSE - MED/BLK-SPACE FUNCTION ZN,Zone Air Temperature [C] !Hourly
9520,7,WAREHOUSE - MED/BLK-SPACE FUNCTION ZN,Zone Air Relative Humidity [%] !Daily [Value,Min,Hour,Minute,Max,Hour,Minute]
9559,1,WAREHOUSE - MED/BLK2 - REFRIGERATED-SPACE FUNCTION ZN,Zone Air Temperature [C] !Hourly
9560,7,WAREHOUSE - MED/BLK2 - REFRIGERATED-SPACE FUNCTION ZN,Zone Air Relative Humidity [%] !Daily [Value,Min,Hour,Minute,Max,Hour,Minute]
9599,1,WAREHOUSE - MED/BLK2-SPACE FUNCTION ZN,Zone Air Temperature [C] !Hourly
9600,7,WAREHOUSE - MED/BLK2-SPACE FUNCTION ZN,Zone Air Relative Humidity [%] !Daily [Value,Min,Hour,Minute,Max,Hour,Minute]
9639,1,WHOLEBUILDING-AUTOMOTIVE FACILITY ZN,Zone Air Temperature [C] !Hourly
9640,7,WHOLEBUILDING-AUTOMOTIVE FACILITY ZN,Zone Air Relative Humidity [%] !Daily [Value,Min,Hour,Minute,Max,Hour,Minute]
9679,1,WHOLEBUILDING-CONVENTION CENTRE ZN,Zone Air Temperature [C] !Hourly
9680,7,WHOLEBUILDING-CONVENTION CENTRE ZN,Zone Air Relative Humidity [%] !Daily [Value,Min,Hour,Minute,Max,Hour,Minute]
9719,1,WHOLEBUILDING-COURTHOUSE ZN,Zone Air Temperature [C] !Hourly
9720,7,WHOLEBUILDING-COURTHOUSE ZN,Zone Air Relative Humidity [%] !Daily [Value,Min,Hour,Minute,Max,Hour,Minute]
9759,1,WHOLEBUILDING-DINING - BAR/LOUNGE ZN,Zone Air Temperature [C] !Hourly
9760,7,WHOLEBUILDING-DINING - BAR/LOUNGE ZN,Zone Air Relative Humidity [%] !Daily [Value,Min,Hour,Minute,Max,Hour,Minute]
9799,1,WHOLEBUILDING-DINING - CAFETERIA ZN,Zone Air Temperature [C] !Hourly
9800,7,WHOLEBUILDING-DINING - CAFETERIA ZN,Zone Air Relative Humidity [%] !Daily [Value,Min,Hour,Minute,Max,Hour,Minute]
9839,1,WHOLEBUILDING-DINING - FAMILY ZN,Zone Air Temperature [C] !Hourly
9840,7,WHOLEBUILDING-DINING - FAMILY ZN,Zone Air Relative Humidity [%] !Daily [Value,Min,Hour,Minute,Max,Hour,Minute]
9879,1,WHOLEBUILDING-DORMITORY ZN,Zone Air Temperature [C] !Hourly
9880,7,WHOLEBUILDING-DORMITORY ZN,Zone Air Relative Humidity [%] !Daily [Value,Min,Hour,Minute,Max,Hour,Minute]
9919,1,WHOLEBUILDING-EXERCISE CENTRE ZN,Zone Air Temperature [C] !Hourly
9920,7,WHOLEBUILDING-EXERCISE CENTRE ZN,Zone Air Relative Humidity [%] !Daily [Value,Min,Hour,Minute,Max,Hour,Minute]
9959,1,WHOLEBUILDING-FIRE STATION ZN,Zone Air Temperature [C] !Hourly
9960,7,WHOLEBUILDING-FIRE STATION ZN,Zone Air Relative Humidity [%] !Daily [Value,Min,Hour,Minute,Max,Hour,Minute]
9999,1,WHOLEBUILDING-GYMNASIUM ZN,Zone Air Temperature [C] !Hourly
10000,7,WHOLEBUILDING-GYMNASIUM ZN,Zone Air Relative Humidity [%] !Daily [Value,Min,Hour,Minute,Max,Hour,Minute]
10039,1,WHOLEBUILDING-HEALTH-CARE CLINIC ZN,Zone Air Temperature [C] !Hourly
10040,7,WHOLEBUILDING-HEALTH-CARE CLINIC ZN,Zone Air Relative Humidity [%] !Daily [Value,Min,Hour,Minute,Max,Hour,Minute]
10079,1,WHOLEBUILDING-HOSPITAL ZN,Zone Air Temperature [C] !Hourly
10080,7,WHOLEBUILDING-HOSPITAL ZN,Zone Air Relative Humidity [%] !Daily [Value,Min,Hour,Minute,Max,Hour,Minute]
10119,1,WHOLEBUILDING-HOTEL ZN,Zone Air Temperature [C] !Hourly
10120,7,WHOLEBUILDING-HOTEL ZN,Zone Air Relative Humidity [%] !Daily [Value,Min,Hour,Minute,Max,Hour,Minute]
10159,1,WHOLEBUILDING-LIBRARY ZN,Zone Air Temperature [C] !Hourly
10160,7,WHOLEBUILDING-LIBRARY ZN,Zone Air Relative Humidity [%] !Daily [Value,Min,Hour,Minute,Max,Hour,Minute]
10199,1,WHOLEBUILDING-MANUFACTURING FACILITY ZN,Zone Air Temperature [C] !Hourly
10200,7,WHOLEBUILDING-MANUFACTURING FACILITY ZN,Zone Air Relative Humidity [%] !Daily [Value,Min,Hour,Minute,Max,Hour,Minute]
10239,1,WHOLEBUILDING-MOTEL ZN,Zone Air Temperature [C] !Hourly
10240,7,WHOLEBUILDING-MOTEL ZN,Zone Air Relative Humidity [%] !Daily [Value,Min,Hour,Minute,Max,Hour,Minute]
10279,1,WHOLEBUILDING-MOTION PICTURE THEATRE ZN,Zone Air Temperature [C] !Hourly
10280,7,WHOLEBUILDING-MOTION PICTURE THEATRE ZN,Zone Air Relative Humidity [%] !Daily [Value,Min,Hour,Minute,Max,Hour,Minute]
10319,1,WHOLEBUILDING-MULTI-UNIT RESIDENTIAL ZN,Zone Air Temperature [C] !Hourly
10320,7,WHOLEBUILDING-MULTI-UNIT RESIDENTIAL ZN,Zone Air Relative Humidity [%] !Daily [Value,Min,Hour,Minute,Max,Hour,Minute]
10359,1,WHOLEBUILDING-MUSEUM ZN,Zone Air Temperature [C] !Hourly
10360,7,WHOLEBUILDING-MUSEUM ZN,Zone Air Relative Humidity [%] !Daily [Value,Min,Hour,Minute,Max,Hour,Minute]
10399,1,WHOLEBUILDING-OFFICE ZN,Zone Air Temperature [C] !Hourly
10400,7,WHOLEBUILDING-OFFICE ZN,Zone Air Relative Humidity [%] !Daily [Value,Min,Hour,Minute,Max,Hour,Minute]
10439,1,WHOLEBUILDING-PARKING GARAGE ZN,Zone Air Temperature [C] !Hourly
10440,7,WHOLEBUILDING-PARKING GARAGE ZN,Zone Air Relative Humidity [%] !Daily [Value,Min,Hour,Minute,Max,Hour,Minute]
10479,1,WHOLEBUILDING-PENITENTIARY ZN,Zone Air Temperature [C] !Hourly
10480,7,WHOLEBUILDING-PENITENTIARY ZN,Zone Air Relative Humidity [%] !Daily [Value,Min,Hour,Minute,Max,Hour,Minute]
10519,1,WHOLEBUILDING-PERFORMING ARTS THEATRE ZN,Zone Air Temperature [C] !Hourly
10520,7,WHOLEBUILDING-PERFORMING ARTS THEATRE ZN,Zone Air Relative Humidity [%] !Daily [Value,Min,Hour,Minute,Max,Hour,Minute]
10559,1,WHOLEBUILDING-POLICE STATION ZN,Zone Air Temperature [C] !Hourly
10560,7,WHOLEBUILDING-POLICE STATION ZN,Zone Air Relative Humidity [%] !Daily [Value,Min,Hour,Minute,Max,Hour,Minute]
10599,1,WHOLEBUILDING-POST OFFICE ZN,Zone Air Temperature [C] !Hourly
10600,7,WHOLEBUILDING-POST OFFICE ZN,Zone Air Relative Humidity [%] !Daily [Value,Min,Hour,Minute,Max,Hour,Minute]
10639,1,WHOLEBUILDING-RELIGIOUS ZN,Zone Air Temperature [C] !Hourly
10640,7,WHOLEBUILDING-RELIGIOUS ZN,Zone Air Relative Humidity [%] !Daily [Value,Min,Hour,Minute,Max,Hour,Minute]
10679,1,WHOLEBUILDING-RETAIL ZN,Zone Air Temperature [C] !Hourly
10680,7,WHOLEBUILDING-RETAIL ZN,Zone Air Relative Humidity [%] !Daily [Value,Min,Hour,Minute,Max,Hour,Minute]
10719,1,WHOLEBUILDING-SCHOOL/UNIVERSITY ZN,Zone Air Temperature [C] !Hourly
10720,7,WHOLEBUILDING-SCHOOL/UNIVERSITY ZN,Zone Air Relative Humidity [%] !Daily [Value,Min,Hour,Minute,Max,Hour,Minute]
10759,1,WHOLEBUILDING-SPORTS ARENA ZN,Zone Air Temperature [C] !Hourly
10760,7,WHOLEBUILDING-SPORTS ARENA ZN,Zone Air Relative Humidity [%] !Daily [Value,Min,Hour,Minute,Max,Hour,Minute]
10799,1,WHOLEBUILDING-TOWN HALL ZN,Zone Air Temperature [C] !Hourly
10800,7,WHOLEBUILDING-TOWN HALL ZN,Zone Air Relative Humidity [%] !Daily [Value,Min,Hour,Minute,Max,Hour,Minute]
10839,1,WHOLEBUILDING-TRANSPORTATION ZN,Zone Air Temperature [C] !Hourly
10840,7,WHOLEBUILDING-TRANSPORTATION ZN,Zone Air Relative Humidity [%] !Daily [Value,Min,Hour,Minute,Max,Hour,Minute]
10879,1,WORKSHOP SPACE-SPACE FUNCTION ZN,Zone Air Temperature [C] !Hourly
10880,7,WORKSHOP SPACE-SPACE FUNCTION ZN,Zone Air Relative Humidity [%] !Daily [Value,Min,Hour,Minute,Max,Hour,Minute]
10,1,Electricity:Facility [J] !TimeStep
11030,1,DistrictCooling:Facility [J] !TimeStep
10993,1,DistrictHeating:Facility [J] !TimeStep
End of Data Dictionary
1,FORT MCMURRAY AP ANN CLG .4% CONDNS DB=>MWB,  56.65,-111.22,  -7.00, 369.10
2,1, 7,21, 0, 1, 0.00,10.00,SummerDesignDay
8,14.218136923962174
10,927481656.0043599
10993,4533589.903429577
11030,605636662.2949396
2,1, 7,21, 0, 1,10.00,20.00,SummerDesignDay
8,14.171982153293495
10,927481656.0043599
10993,5794714.320038369
11030,587857107.6507199
2,1, 7,21, 0, 1,20.00,30.00,SummerDesignDay
8,14.125744780286427
10,927481656.0043599
10993,6971012.580633611
11030,571323105.1441257
2,1, 7,21, 0, 1,30.00,40.00,SummerDesignDay
8,14.079436086331978
10,927481656.0043599
10993,8122987.157452017
11030,554845384.339467
2,1, 7,21, 0, 1,40.00,50.00,SummerDesignDay
8,14.033050387896898
10,927481656.0043599
10993,9257265.353949469
11030,538346506.4325565
2,1, 7,21, 0, 1,50.00,60.00,SummerDesignDay
8,13.986581233564835
10,927481656.0043599
10993,11087438.715270959
11030,521820686.8297445