Program Version,EnergyPlus, Version 8.9.0-eba93e8e1b, YMD=2019.03.05 16:13
1,5,Environment Title[],Latitude[deg],Longitude[deg],Time Zone[],Elevation[m]
2,8,Day of Simulation[],Month[],Day of Month[],DST Indicator[1=yes 0=no],Hour[],StartMinute[],EndMinute[],DayType
3,5,Cumulative Day of Simulation[],Month[],Day of Month[],DST Indicator[1=yes 0=no],DayType  ! When Daily Report Variables Requested
4,2,Cumulative Days of Simulation[],Month[]  ! When Monthly Report Variables Requested
5,1,Cumulative Days of Simulation[] ! When Run Period Report Variables Requested
6,1,Calendar Year of Simulation[] ! When Annual Report Variables Requested
7,9,Environment,Site Outdoor Air Drybulb Temperature [C] !Monthly [Value,Min,Day,Hour,Minute,Max,Day,Hour,Minute]
8,1,Environment,Site Outdoor Air Wetbulb Temperature [C] !TimeStep
5319,1,STORY 1 CORE SPACE ZN,Zone Air Temperature [C] !Hourly
5320,7,STORY 1 CORE SPACE ZN,Zone Air Relative Humidity [%] !Daily [Value,Min,Hour,Minute,Max,Hour,Minute]
5359,1,STORY 1 EAST PERIMETER SPACE ZN,Zone Air Temperature [C] !Hourly
5360,7,STORY 1 EAST PERIMETER SPACE ZN,Zone Air Relative Humidity [%] !Daily [Value,Min,Hour,Minute,Max,Hour,Minute]
5399,1,STORY 1 NORTH PERIMETER SPACE ZN,Zone Air Temperature [C] !Hourly
5400,7,STORY 1 NORTH PERIMETER SPACE ZN,Zone Air Relative Humidity [%] !Daily [Value,Min,Hour,Minute,Max,Hour,Minute]
5439,1,STORY 1 SOUTH PERIMETER SPACE ZN,Zone Air Temperature [C] !Hourly
5440,7,STORY 1 SOUTH PERIMETER SPACE ZN,Zone Air Relative Humidity [%] !Daily [Value,Min,Hour,Minute,Max,Hour,Minute]
5479,1,STORY 1 WEST PERIMETER SPACE ZN,Zone Air Temperature [C] !Hourly
5480,7,STORY 1 WEST PERIMETER SPACE ZN,Zone Air Relative Humidity [%] !Daily [Value,Min,Hour,Minute,Max,Hour,Minute]
5519,1,STORY 10 CORE SPACE ZN,Zone Air Temperature [C] !Hourly
5520,7,STORY 10 CORE SPACE ZN,Zone Air Relative Humidity [%] !Daily [Value,Min,Hour,Minute,Max,Hour,Minute]
5559,1,STORY 10 EAST PERIMETER SPACE ZN,Zone Air Temperature [C] !Hourly
5560,7,STORY 10 EAST PERIMETER SPACE ZN,Zone Air Relative Humidity [%] !Daily [Value,Min,Hour,Minute,Max,Hour,Minute]
5599,1,STORY 10 NORTH PERIMETER SPACE ZN,Zone Air Temperature [C] !Hourly
5600,7,STORY 10 NORTH PERIMETER SPACE ZN,Zone Air Relative Humidity [%] !Daily [Value,Min,Hour,Minute,Max,Hour,Minute]
5639,1,STORY 10 SOUTH PERIMETER SPACE ZN,Zone Air Temperature [C] !Hourly
5640,7,STORY 10 SOUTH PERIMETER SPACE ZN,Zone Air Relative Humidity [%] !Daily [Value,Min,Hour,Minute,Max,Hour,Minute]
5679,1,STORY 10 WEST PERIMETER SPACE ZN,Zone Air Temperature [C] !Hourly
5680,7,STORY 10 WEST PERIMETER SPACE ZN,Zone Air Relative Humidity [%] !Daily [Value,Min,Hour,Minute,Max,Hour,Minute]
5719,1,STORY 11 CORE SPACE ZN,Zone Air Temperature [C] !Hourly
5720,7,STORY 11 CORE SPACE ZN,Zone Air Relative Humidity [%] !Daily [Value,Min,Hour,Minute,Max,Hour,Minute]
5759,1,STORY 11 EAST PERIMETER SPACE ZN,Zone Air Temperature [C] !Hourly
5760,7,STORY 11 EAST PERIMETER SPACE ZN,Zone Air Relative Humidity [%] !Daily [Value,Min,Hour,Minute,Max,Hour,Minute]
5799,1,STORY 11 NORTH PERIMETER SPACE ZN,Zone Air Temperature [C] !Hourly
5800,7,STORY 11 NORTH PERIMETER SPACE ZN,Zone Air Relative Humidity [%] !Daily [Value,Min,Hour,Minute,Max,Hour,Minute]
5839,1,STORY 11 SOUTH PERIMETER SPACE ZN,Zone Air Temperature [C] !Hourly
5840,7,STORY 11 SOUTH PERIMETER SPACE ZN,Zone Air Relative Humidity [%] !Daily [Value,Min,Hour,Minute,Max,Hour,Minute]
5879,1,STORY 11 WEST PERIMETER SPACE ZN,Zone Air Temperature [C] !Hourly
5880,7,STORY 11 WEST PERIMETER SPACE ZN,Zone Air Relative Humidity [%] !Daily [Value,Min,Hour,Minute,Max,Hour,Minute]
5919,1,STORY 12 CORE SPACE ZN,Zone Air Temperature [C] !Hourly
5920,7,STORY 12 CORE SPACE ZN,Zone Air Relative Humidity [%] !Daily [Value,Min,Hour,Minute,Max,Hour,Minute]
5959,1,STORY 12 EAST PERIMETER SPACE ZN,Zone Air Temperature [C] !Hourly
5960,7,STORY 12 EAST PERIMETER SPACE ZN,Zone Air Relative Humidity [%] !Daily [Value,Min,Hour,Minute,Max,Hour,Minute]
5999,1,STORY 12 NORTH PERIMETER SPACE ZN,Zone Air Temperature [C] !Hourly
6000,7,STORY 12 NORTH PERIMETER SPACE ZN,Zone Air Relative Humidity [%] !Daily [Value,Min,Hour,Minute,Max,Hour,Minute]
6039,1,STORY 12 SOUTH PERIMETER SPACE ZN,Zone Air Temperature [C] !Hourly
6040,7,STORY 12 SOUTH PERIMETER SPACE ZN,Zone Air Relative Humidity [%] !Daily [Value,Min,Hour,Minute,Max,Hour,Minute]
6079,1,STORY 12 WEST PERIMETER SPACE ZN,Zone Air Temperature [C] !Hourly
6080,7,STORY 12 WEST PERIMETER SPACE ZN,Zone Air Relative Humidity [%] !Daily [Value,Min,Hour,Minute,Max,Hour,Minute]
6119,1,STORY 13 CORE SPACE ZN,Zone Air Temperature [C] !Hourly
6120,7,STORY 13 CORE SPACE ZN,Zone Air Relative Humidity [%] !Daily [Value,Min,Hour,Minute,Max,Hour,Minute]
6159,1,STORY 13 EAST PERIMETER SPACE ZN,Zone Air Temperature [C] !Hourly
6160,7,STORY 13 EAST PERIMETER SPACE ZN,Zone Air Relative Humidity [%] !Daily [Value,Min,Hour,Minute,Max,Hour,Minute]
6199,1,STORY 13 NORTH PERIMETER SPACE ZN,Zone Air Temperature [C] !Hourly
6200,7,STORY 13 NORTH PERIMETER SPACE ZN,Zone Air Relative Humidity [%] !Daily [Value,Min,Hour,Minute,Max,Hour,Minute]
6239,1,STORY 13 SOUTH PERIMETER SPACE ZN,Zone Air Temperature [C] !Hourly
6240,7,STORY 13 SOUTH PERIMETER SPACE ZN,Zone Air Relative Humidity [%] !Daily [Value,Min,Hour,Minute,Max,Hour,Minute]
6279,1,STORY 13 WEST PERIMETER SPACE ZN,Zone Air Temperature [C] !Hourly
6280,7,STORY 13 WEST PERIMETER SPACE ZN,Zone Air Relative Humidity [%] !Daily [Value,Min,Hour,Minute,Max,Hour,Minute]
6319,1,STORY 14 CORE SPACE ZN,Zone Air Temperature [C] !Hourly
6320,7,STORY 14 CORE SPACE ZN,Zone Air Relative Humidity [%] !Daily [Value,Min,Hour,Minute,Max,Hour,Minute]
6359,1,STORY 14 EAST PERIMETER SPACE ZN,Zone Air Temperature [C] !Hourly
6360,7,STORY 14 EAST PERIMETER SPACE ZN,Zone Air Relative Humidity [%] !Daily [Value,Min,Hour,Minute,Max,Hour,Minute]
6399,1,STORY 14 NORTH PERIMETER SPACE ZN,Zone Air Temperature [C] !Hourly
6400,7,STORY 14 NORTH PERIMETER SPACE ZN,Zone Air Relative Humidity [%] !Daily [Value,Min,Hour,Minute,Max,Hour,Minute]
6439,1,STORY 14 SOUTH PERIMETER SPACE ZN,Zone Air Temperature [C] !Hourly
6440,7,STORY 14 SOUTH PERIMETER SPACE ZN,Zone Air Relative Humidity [%] !Daily [Value,Min,Hour,Minute,Max,Hour,Minute]
6479,1,STORY 14 WEST PERIMETER SPACE ZN,Zone Air Temperature [C] !Hourly
6480,7,STORY 14 WEST PERIMETER SPACE ZN,Zone Air Relative Humidity [%] !Daily [Value,Min,Hour,Minute,Max,Hour,Minute]
6519,1,STORY 15 CORE SPACE ZN,Zone Air Temperature [C] !Hourly
6520,7,STORY 15 CORE SPACE ZN,Zone Air Relative Humidity [%] !Daily [Value,Min,Hour,Minute,Max,Hour,Minute]
6559,1,STORY 15 EAST PERIMETER SPACE ZN,Zone Air Temperature [C] !Hourly
6560,7,STORY 15 EAST PERIMETER SPACE ZN,Zone Air Relative Humidity [%] !Daily [Value,Min,Hour,Minute,Max,Hour,Minute]
6599,1,STORY 15 NORTH PERIMETER SPACE ZN,Zone Air Temperature [C] !Hourly
6600,7,STORY 15 NORTH PERIMETER SPACE ZN,Zone Air Relative Humidity [%] !Daily [Value,Min,Hour,Minute,Max,Hour,Minute]
6639,1,STORY 15 SOUTH PERIMETER SPACE ZN,Zone Air Temperature [C] !Hourly
6640,7,STORY 15 SOUTH PERIMETER SPACE ZN,Zone Air Relative Humidity [%] !Daily [Value,Min,Hour,Minute,Max,Hour,Minute]
6679,1,STORY 15 WEST PERIMETER SPACE ZN,Zone Air Temperature [C] !Hourly
6680,7,STORY 15 WEST PERIMETER SPACE ZN,Zone Air Relative Humidity [%] !Daily [Value,Min,Hour,Minute,Max,Hour,Minute]
6719,1,STORY 16 CORE SPACE ZN,Zone Air Temperature [C] !Hourly
6720,7,STORY 16 CORE SPACE ZN,Zone Air Relative Humidity [%] !Daily [Value,Min,Hour,Minute,Max,Hour,Minute]
6759,1,STORY 16 EAST PERIMETER SPACE ZN,Zone Air Temperature [C] !Hourly
6760,7,STORY 16 EAST PERIMETER SPACE ZN,Zone Air Relative Humidity [%] !Daily [Value,Min,Hour,Minute,Max,Hour,Minute]
6799,1,STORY 16 NORTH PERIMETER SPACE ZN,Zone Air Temperature [C] !Hourly
6800,7,STORY 16 NORTH PERIMETER SPACE ZN,Zone Air Relative Humidity [%] !Daily [Value,Min,Hour,Minute,Max,Hour,Minute]
6839,1,STORY 16 SOUTH PERIMETER SPACE ZN,Zone Air Temperature [C] !Hourly
6840,7,STORY 16 SOUTH PERIMETER SPACE ZN,Zone Air Relative Humidity [%] !Daily [Value,Min,Hour,Minute,Max,Hour,Minute]
6879,1,STORY 16 WEST PERIMETER SPACE ZN,Zone Air Temperature [C] !Hourly
6880,7,STORY 16 WEST PERIMETER SPACE ZN,Zone Air Relative Humidity [%] !Daily [Value,Min,Hour,Minute,Max,Hour,Minute]
6919,1,STORY 17 CORE SPACE ZN,Zone Air Temperature [C] !Hourly
6920,7,STORY 17 CORE SPACE ZN,Zone Air Relative Humidity [%] !Daily [Value,Min,Hour,Minute,Max,Hour,Minute]
6959,1,STORY 17 EAST PERIMETER SPACE ZN,Zone Air Temperature [C] !Hourly
6960,7,STORY 17 EAST PERIMETER SPACE ZN,Zone Air Relative Humidity [%] !Daily [Value,Min,Hour,Minute,Max,Hour,Minute]
6999,1,STORY 17 NORTH PERIMETER SPACE ZN,Zone Air Temperature [C] !Hourly
7000,7,STORY 17 NORTH PERIMETER SPACE ZN,Zone Air Relative Humidity [%] !Daily [Value,Min,Hour,Minute,Max,Hour,Minute]
7039,1,STORY 17 SOUTH PERIMETER SPACE ZN,Zone Air Temperature [C] !Hourly
7040,7,STORY 17 SOUTH PERIMETER SPACE ZN,Zone Air Relative Humidity [%] !Daily [Value,Min,Hour,Minute,Max,Hour,Minute]
7079,1,STORY 17 WEST PERIMETER SPACE ZN,Zone Air Temperature [C] !Hourly
7080,7,STORY 17 WEST PERIMETER SPACE ZN,Zone Air Relative Humidity [%] !Daily [Value,Min,Hour,Minute,Max,Hour,Minute]
7119,1,STORY 18 CORE SPACE ZN,Zone Air Temperature [C] !Hourly
7120,7,STORY 18 CORE SPACE ZN,Zone Air Relative Humidity [%] !Daily [Value,Min,Hour,Minute,Max,Hour,Minute]
7159,1,STORY 18 EAST PERIMETER SPACE ZN,Zone Air Temperature [C] !Hourly
7160,7,STORY 18 EAST PERIMETER SPACE ZN,Zone Air Relative Humidity [%] !Daily [Value,Min,Hour,Minute,Max,Hour,Minute]
7199,1,STORY 18 NORTH PERIMETER SPACE ZN,Zone Air Temperature [C] !Hourly
7200,7,STORY 18 NORTH PERIMETER SPACE ZN,Zone Air Relative Humidity [%] !Daily [Value,Min,Hour,Minute,Max,Hour,Minute]
7239,1,STORY 18 SOUTH PERIMETER SPACE ZN,Zone Air Temperature [C] !Hourly
7240,7,STORY 18 SOUTH PERIMETER SPACE ZN,Zone Air Relative Humidity [%] !Daily [Value,Min,Hour,Minute,Max,Hour,Minute]
7279,1,STORY 18 WEST PERIMETER SPACE ZN,Zone Air Temperature [C] !Hourly
7280,7,STORY 18 WEST PERIMETER SPACE ZN,Zone Air Relative Humidity [%] !Daily [Value,Min,Hour,Minute,Max,Hour,Minute]
7319,1,STORY 19 CORE SPACE ZN,Zone Air Temperature [C] !Hourly
7320,7,STORY 19 CORE SPACE ZN,Zone Air Relative Humidity [%] !Daily [Value,Min,Hour,Minute,Max,Hour,Minute]
7359,1,STORY 19 EAST PERIMETER SPACE ZN,Zone Air Temperature [C] !Hourly
7360,7,STORY 19 EAST PERIMETER SPACE ZN,Zone Air Relative Humidity [%] !Daily [Value,Min,Hour,Minute,Max,Hour,Minute]
7399,1,STORY 19 NORTH PERIMETER SPACE ZN,Zone Air Temperature [C] !Hourly
7400,7,STORY 19 NORTH PERIMETER SPACE ZN,Zone Air Relative Humidity [%] !Daily [Value,Min,Hour,Minute,Max,Hour,Minute]
7439,1,STORY 19 SOUTH PERIMETER SPACE ZN,Zone Air Temperature [C] !Hourly
7440,7,STORY 19 SOUTH PERIMETER SPACE ZN,Zone Air Relative Humidity [%] !Daily [Value,Min,Hour,Minute,Max,Hour,Minute]
7479,1,STORY 19 WEST PERIMETER SPACE ZN,Zone Air Temperature [C] !Hourly
7480,7,STORY 19 WEST PERIMETER SPACE ZN,Zone Air Relative Humidity [%] !Daily [Value,Min,Hour,Minute,Max,Hour,Minute]
7519,1,STORY 2 CORE SPACE ZN,Zone Air Temperature [C] !Hourly
7520,7,STORY 2 CORE SPACE ZN,Zone Air Relative Humidity [%] !Daily [Value,Min,Hour,Minute,Max,Hour,Minute]
7559,1,STORY 2 EAST PERIMETER SPACE ZN,Zone Air Temperature [C] !Hourly
7560,7,STORY 2 EAST PERIMETER SPACE ZN,Zone Air Relative Humidity [%] !Daily [Value,Min,Hour,Minute,Max,Hour,Minute]
7599,1,STORY 2 NORTH PERIMETER SPACE ZN,Zone Air Temperature [C] !Hourly
7600,7,STORY 2 NORTH PERIMETER SPACE ZN,Zone Air Relative Humidity [%] !Daily [Value,Min,Hour,Minute,Max,Hour,Minute]
7639,1,STORY 2 SOUTH PERIMETER SPACE ZN,Zone Air Temperature [C] !Hourly
7640,7,STORY 2 SOUTH PERIMETER SPACE ZN,Zone Air Relative Humidity [%] !Daily [Value,Min,Hour,Minute,Max,Hour,Minute]
7679,1,STORY 2 WEST PERIMETER SPACE ZN,Zone Air Temperature [C] !Hourly
7680,7,STORY 2 WEST PERIMETER SPACE ZN,Zone Air Relative Humidity [%] !Daily [Value,Min,Hour,Minute,Max,Hour,Minute]
7719,1,STORY 20 CORE SPACE ZN,Zone Air Temperature [C] !Hourly
7720,7,STORY 20 CORE SPACE ZN,Zone Air Relative Humidity [%] !Daily [Value,Min,Hour,Minute,Max,Hour,Minute]
7759,1,STORY 20 EAST PERIMETER SPACE ZN,Zone Air Temperature [C] !Hourly
7760,7,STORY 20 EAST PERIMETER SPACE ZN,Zone Air Relative Humidity [%] !Daily [Value,Min,Hour,Minute,Max,Hour,Minute]
7799,1,STORY 20 NORTH PERIMETER SPACE ZN,Zone Air Temperature [C] !Hourly
7800,7,STORY 20 NORTH PERIMETER SPACE ZN,Zone Air Relative Humidity [%] !Daily [Value,Min,Hour,Minute,Max,Hour,Minute]
7839,1,STORY 20 SOUTH PERIMETER SPACE ZN,Zone Air Temperature [C] !Hourly
7840,7,STORY 20 SOUTH PERIMETER SPACE ZN,Zone Air Relative Humidity [%] !Daily [Value,Min,Hour,Minute,Max,Hour,Minute]
7879,1,STORY 20 WEST PERIMETER SPACE ZN,Zone Air Temperature [C] !Hourly
7880,7,STORY 20 WEST PERIMETER SPACE ZN,Zone Air Relative Humidity [%] !Daily [Value,Min,Hour,Minute,Max,Hour,Minute]
7919,1,STORY 21 CORE SPACE ZN,Zone Air Temperature [C] !Hourly
7920,7,STORY 21 CORE SPACE ZN,Zone Air Relative Humidity [%] !Daily [Value,Min,Hour,Minute,Max,Hour,Minute]
7959,1,STORY 21 EAST PERIMETER SPACE ZN,Zone Air Temperature [C] !Hourly
7960,7,STORY 21 EAST PERIMETER SPACE ZN,Zone Air Relative Humidity [%] !Daily [Value,Min,Hour,Minute,Max,Hour,Minute]
7999,1,STORY 21 NORTH PERIMETER SPACE ZN,Zone Air Temperature [C] !Hourly
8000,7,STORY 21 NORTH PERIMETER SPACE ZN,Zone Air Relative Humidity [%] !Daily [Value,Min,Hour,Minute,Max,Hour,Minute]
8039,1,STORY 21 SOUTH PERIMETER SPACE ZN,Zone Air Temperature [C] !Hourly
8040,7,STORY 21 SOUTH PERIMETER SPACE ZN,Zone Air Relative Humidity [%] !Daily [Value,Min,Hour,Minute,Max,Hour,Minute]
8079,1,STORY 21 WEST PERIMETER SPACE ZN,Zone Air Temperature [C] !Hourly
8080,7,STORY 21 WEST PERIMETER SPACE ZN,Zone Air Relative Humidity [%] !Daily [Value,Min,Hour,Minute,Max,Hour,Minute]
8119,1,STORY 22 CORE SPACE ZN,Zone Air Temperature [C] !Hourly
8120,7,STORY 22 CORE SPACE ZN,Zone Air Relative Humidity [%] !Daily [Value,Min,Hour,Minute,Max,Hour,Minute]
8159,1,STORY 22 EAST PERIMETER SPACE ZN,Zone Air Temperature [C] !Hourly
8160,7,STORY 22 EAST PERIMETER SPACE ZN,Zone Air Relative Humidity [%] !Daily [Value,Min,Hour,Minute,Max,Hour,Minute]
8199,1,STORY 22 NORTH PERIMETER SPACE ZN,Zone Air Temperature [C] !Hourly
8200,7,STORY 22 NORTH PERIMETER SPACE ZN,Zone Air Relative Humidity [%] !Daily [Value,Min,Hour,Minute,Max,Hour,Minute]
8239,1,STORY 22 SOUTH PERIMETER SPACE ZN,Zone Air Temperature [C] !Hourly
8240,7,STORY 22 SOUTH PERIMETER SPACE ZN,Zone Air Relative Humidity [%] !Daily [Value,Min,Hour,Minute,Max,Hour,Minute]
8279,1,STORY 22 WEST PERIMETER SPACE ZN,Zone Air Temperature [C] !Hourly
8280,7,STORY 22 WEST PERIMETER SPACE ZN,Zone Air Relative Humidity [%] !Daily [Value,Min,Hour,Minute,Max,Hour,Minute]
8319,1,STORY 23 CORE SPACE ZN,Zone Air Temperature [C] !Hourly
8320,7,STORY 23 CORE SPACE ZN,Zone Air Relative Humidity [%] !Daily [Value,Min,Hour,Minute,Max,Hour,Minute]
8359,1,STORY 23 EAST PERIMETER SPACE ZN,Zone Air Temperature [C] !Hourly
8360,7,STORY 23 EAST PERIMETER SPACE ZN,Zone Air Relative Humidity [%] !Daily [Value,Min,Hour,Minute,Max,Hour,Minute]
8399,1,STORY 23 NORTH PERIMETER SPACE ZN,Zone Air Temperature [C] !Hourly
8400,7,STORY 23 NORTH PERIMETER SPACE ZN,Zone Air Relative Humidity [%] !Daily [Value,Min,Hour,Minute,Max,Hour,Minute]
8439,1,STORY 23 SOUTH PERIMETER SPACE ZN,Zone Air Temperature [C] !Hourly
8440,7,STORY 23 SOUTH PERIMETER SPACE ZN,Zone Air Relative Humidity [%] !Daily [Value,Min,Hour,Minute,Max,Hour,Minute]
8479,1,STORY 23 WEST PERIMETER SPACE ZN,Zone Air Temperature [C] !Hourly
8480,7,STORY 23 WEST PERIMETER SPACE ZN,Zone Air Relative Humidity [%] !Daily [Value,Min,Hour,Minute,Max,Hour,Minute]
8519,1,STORY 24 CORE SPACE ZN,Zone Air Temperature [C] !Hourly
8520,7,STORY 24 CORE SPACE ZN,Zone Air Relative Humidity [%] !Daily [Value,Min,Hour,Minute,Max,Hour,Minute]
8559,1,STORY 24 EAST PERIMETER SPACE ZN,Zone Air Temperature [C] !Hourly
8560,7,STORY 24 EAST PERIMETER SPACE ZN,Zone Air Relative Humidity [%] !Daily [Value,Min,Hour,Minute,Max,Hour,Minute]
8599,1,STORY 24 NORTH PERIMETER SPACE ZN,Zone Air Temperature [C] !Hourly
8600,7,STORY 24 NORTH PERIMETER SPACE ZN,Zone Air Relative Humidity [%] !Daily [Value,Min,Hour,Minute,Max,Hour,Minute]
8639,1,STORY 24 SOUTH PERIMETER SPACE ZN,Zone Air Temperature [C] !Hourly
8640,7,STORY 24 SOUTH PERIMETER SPACE ZN,Zone Air Relative Humidity [%] !Daily [Value,Min,Hour,Minute,Max,Hour,Minute]
8679,1,STORY 24 WEST PERIMETER SPACE ZN,Zone Air Temperature [C] !Hourly
8680,7,STORY 24 WEST PERIMETER SPACE ZN,Zone Air Relative Humidity [%] !Daily [Value,Min,Hour,Minute,Max,Hour,Minute]
8719,1,STORY 25 CORE SPACE ZN,Zone Air Temperature [C] !Hourly
8720,7,STORY 25 CORE SPACE ZN,Zone Air Relative Humidity [%] !Daily [Value,Min,Hour,Minute,Max,Hour,Minute]
8759,1,STORY 25 EAST PERIMETER SPACE ZN,Zone Air Temperature [C] !Hourly
8760,7,STORY 25 EAST PERIMETER SPACE ZN,Zone Air Relative Humidity [%] !Daily [Value,Min,Hour,Minute,Max,Hour,Minute]
8799,1,STORY 25 NORTH PERIMETER SPACE ZN,Zone Air Temperature [C] !Hourly
8800,7,STORY 25 NORTH PERIMETER SPACE ZN,Zone Air Relative Humidity [%] !Daily [Value,Min,Hour,Minute,Max,Hour,Minute]
8839,1,STORY 25 SOUTH PERIMETER SPACE ZN,Zone Air Temperature [C] !Hourly
8840,7,STORY 25 SOUTH PERIMETER SPACE ZN,Zone Air Relative Humidity [%] !Daily [Value,Min,Hour,Minute,Max,Hour,Minute]
8879,1,STORY 25 WEST PERIMETER SPACE ZN,Zone Air Temperature [C] !Hourly
8880,7,STORY 25 WEST PERIMETER SPACE ZN,Zone Air Relative Humidity [%] !Daily [Value,Min,Hour,Minute,Max,Hour,Minute]
8919,1,STORY 26 CORE SPACE ZN,Zone Air Temperature [C] !Hourly
8920,7,STORY 26 CORE SPACE ZN,Zone Air Relative Humidity [%] !Daily [Value,Min,Hour,Minute,Max,Hour,Minute]
8959,1,STORY 26 EAST PERIMETER SPACE ZN,Zone Air Temperature [C] !Hourly
8960,7,STORY 26 EAST PERIMETER SPACE ZN,Zone Air Relative Humidity [%] !Daily [Value,Min,Hour,Minute,Max,Hour,Minute]
8999,1,STORY 26 NORTH PERIMETER SPACE ZN,Zone Air Temperature [C] !Hourly
9000,7,STORY 26 NORTH PERIMETER SPACE ZN,Zone Air Relative Humidity [%] !Daily [Value,Min,Hour,Minute,Max,Hour,Minute]
9039,1,STORY 26 SOUTH PERIMETER SPACE ZN,Zone Air Temperature [C] !Hourly
9040,7,STORY 26 SOUTH PERIMETER SPACE ZN,Zone Air Relative Humidity [%] !Daily [Value,Min,Hour,Minute,Max,Hour,Minute]
9079,1,STORY 26 WEST PERIMETER SPACE ZN,Zone Air Temperature [C] !Hourly
9080,7,STORY 26 WEST PERIMETER SPACE ZN,Zone Air Relative Humidity [%] !Daily [Value,Min,Hour,Minute,Max,Hour,Minute]
9119,1,STORY 27 CORE SPACE ZN,Zone Air Temperature [C] !Hourly
9120,7,STORY 27 CORE SPACE ZN,Zone Air Relative Humidity [%] !Daily [Value,Min,Hour,Minute,Max,Hour,Minute]
9159,1,STORY 27 EAST PERIMETER SPACE ZN,Zone Air Temperature [C] !Hourly
9160,7,STORY 27 EAST PERIMETER SPACE ZN,Zone Air Relative Humidity [%] !Daily [Value,Min,Hour,Minute,Max,Hour,Minute]
9199,1,STORY 27 NORTH PERIMETER SPACE ZN,Zone Air Temperature [C] !Hourly
9200,7,STORY 27 NORTH PERIMETER SPACE ZN,Zone Air Relative Humidity [%] !Daily [Value,Min,Hour,Minute,Max,Hour,Minute]
9239,1,STORY 27 SOUTH PERIMETER SPACE ZN,Zone Air Temperature [C] !Hourly
9240,7,STORY 27 SOUTH PERIMETER SPACE ZN,Zone Air Relative Humidity [%] !Daily [Value,Min,Hour,Minute,Max,Hour,Minute]
9279,1,STORY 27 WEST PERIMETER SPACE ZN,Zone Air Temperature [C] !Hourly
9280,7,STORY 27 WEST PERIMETER SPACE ZN,Zone Air Relative Humidity [%] !Daily [Value,Min,Hour,Minute,Max,Hour,Minute]
9319,1,STORY 28 CORE SPACE ZN,Zone Air Temperature [C] !Hourly
9320,7,STORY 28 CORE SPACE ZN,Zone Air Relative Humidity [%] !Daily [Value,Min,Hour,Minute,Max,Hour,Minute]
9359,1,STORY 28 EAST PERIMETER SPACE ZN,Zone Air Temperature [C] !Hourly
9360,7,STORY 28 EAST PERIMETER SPACE ZN,Zone Air Relative Humidity [%] !Daily [Value,Min,Hour,Minute,Max,Hour,Minute]
9399,1,STORY 28 NORTH PERIMETER SPACE ZN,Zone Air Temperature [C] !Hourly
9400,7,STORY 28 NORTH PERIMETER SPACE ZN,Zone Air Relative Humidity [%] !Daily [Value,Min,Hour,Minute,Max,Hour,Minute]
9439,1,STORY 28 SOUTH PERIMETER SPACE ZN,Zone Air Temperature [C] !Hourly
9440,7,STORY 28 SOUTH PERIMETER SPACE ZN,Zone Air Relative Humidity [%] !Daily [Value,Min,Hour,Minute,Max,Hour,Minute]
9479,1,STORY 28 WEST PERIMETER SPACE ZN,Zone Air Temperature [C] !Hourly
9480,7,STORY 28 WEST PERIMETER SPACE ZN,Zone Air Relative Humidity [%] !Daily [Value,Min,Hour,Minute,Max,Hour,Minute]
9519,1,STORY 3 CORE SPACE ZN,Zone Air Temperature [C] !Hourly
9520,7,STORY 3 CORE SPACE ZN,Zone Air Relative Humidity [%] !Daily [Value,Min,Hour,Minute,Max,Hour,Minute]
9559,1,STORY 3 EAST PERIMETER SPACE ZN,Zone Air Temperature [C] !Hourly
9560,7,STORY 3 EAST PERIMETER SPACE ZN,Zone Air Relative Humidity [%] !Daily [Value,Min,Hour,Minute,Max,Hour,Minute]
9599,1,STORY 3 NORTH PERIMETER SPACE ZN,Zone Air Temperature [C] !Hourly
9600,7,STORY 3 NORTH PERIMETER SPACE ZN,Zone Air Relative Humidity [%] !Daily [Value,Min,Hour,Minute,Max,Hour,Minute]
9639,1,STORY 3 SOUTH PERIMETER SPACE ZN,Zone Air Temperature [C] !Hourly
9640,7,STORY 3 SOUTH PERIMETER SPACE ZN,Zone Air Relative Humidity [%] !Daily [Value,Min,Hour,Minute,Max,Hour,Minute]
9679,1,STORY 3 WEST PERIMETER SPACE ZN,Zone Air Temperature [C] !Hourly
9680,7,STORY 3 WEST PERIMETER SPACE ZN,Zone Air Relative Humidity [%] !Daily [Value,Min,Hour,Minute,Max,Hour,Minute]
9719,1,STORY 4 CORE SPACE ZN,Zone Air Temperature [C] !Hourly
9720,7,STORY 4 CORE SPACE ZN,Zone Air Relative Humidity [%] !Daily [Value,Min,Hour,Minute,Max,Hour,Minute]
9759,1,STORY 4 EAST PERIMETER SPACE ZN,Zone Air Temperature [C] !Hourly
9760,7,STORY 4 EAST PERIMETER SPACE ZN,Zone Air Relative Humidity [%] !Daily [Value,Min,Hour,Minute,Max,Hour,Minute]
9799,1,STORY 4 NORTH PERIMETER SPACE ZN,Zone Air Temperature [C] !Hourly
9800,7,STORY 4 NORTH PERIMETER SPACE ZN,Zone Air Relative Humidity [%] !Daily [Value,Min,Hour,Minute,Max,Hour,Minute]
9839,1,STORY 4 SOUTH PERIMETER SPACE ZN,Zone Air Temperature [C] !Hourly
9840,7,STORY 4 SOUTH PERIMETER SPACE ZN,Zone Air Relative Humidity [%] !Daily [Value,Min,Hour,Minute,Max,Hour,Minute]
9879,1,STORY 4 WEST PERIMETER SPACE ZN,Zone Air Temperature [C] !Hourly
9880,7,STORY 4 WEST PERIMETER SPACE ZN,Zone Air Relative Humidity [%] !Daily [Value,Min,Hour,Minute,Max,Hour,Minute]
9919,1,STORY 5 CORE SPACE ZN,Zone Air Temperature [C] !Hourly
9920,7,STORY 5 CORE SPACE ZN,Zone Air Relative Humidity [%] !Daily [Value,Min,Hour,Minute,Max,Hour,Minute]
9959,1,STORY 5 EAST PERIMETER SPACE ZN,Zone Air Temperature [C] !Hourly
9960,7,STORY 5 EAST PERIMETER SPACE ZN,Zone Air Relative Humidity [%] !Daily [Value,Min,Hour,Minute,Max,Hour,Minute]
9999,1,STORY 5 NORTH PERIMETER SPACE ZN,Zone Air Temperature [C] !Hourly
10000,7,STORY 5 NORTH PERIMETER SPACE ZN,Zone Air Relative Humidity [%] !Daily [Value,Min,Hour,Minute,Max,Hour,Minute]
10039,1,STORY 5 SOUTH PERIMETER SPACE ZN,Zone Air Temperature [C] !Hourly
10040,7,STORY 5 SOUTH PERIMETER SPACE ZN,Zone Air Relative Humidity [%] !Daily [Value,Min,Hour,Minute,Max,Hour,Minute]
10079,1,STORY 5 WEST PERIMETER SPACE ZN,Zone Air Temperature [C] !Hourly
10080,7,STORY 5 WEST PERIMETER SPACE ZN,Zone Air Relative Humidity [%] !Daily [Value,Min,Hour,Minute,Max,Hour,Minute]
10119,1,STORY 6 CORE SPACE ZN,Zone Air Temperature [C] !Hourly
10120,7,STORY 6 CORE SPACE ZN,Zone Air Relative Humidity [%] !Daily [Value,Min,Hour,Minute,Max,Hour,Minute]
10159,1,STORY 6 EAST PERIMETER SPACE ZN,Zone Air Temperature [C] !Hourly
10160,7,STORY 6 EAST PERIMETER SPACE ZN,Zone Air Relative Humidity [%] !Daily [Value,Min,Hour,Minute,Max,Hour,Minute]
10199,1,STORY 6 NORTH PERIMETER SPACE ZN,Zone Air Temperature [C] !Hourly
10200,7,STORY 6 NORTH PERIMETER SPACE ZN,Zone Air Relative Humidity [%] !Daily [Value,Min,Hour,Minute,Max,Hour,Minute]
10239,1,STORY 6 SOUTH PERIMETER SPACE ZN,Zone Air Temperature [C] !Hourly
10240,7,STORY 6 SOUTH PERIMETER SPACE ZN,Zone Air Relative Humidity [%] !Daily [Value,Min,Hour,Minute,Max,Hour,Minute]
10279,1,STORY 6 WEST PERIMETER SPACE ZN,Zone Air Temperature [C] !Hourly
10280,7,STORY 6 WEST PERIMETER SPACE ZN,Zone Air Relative Humidity [%] !Daily [Value,Min,Hour,Minute,Max,Hour,Minute]
10319,1,STORY 7 CORE SPACE ZN,Zone Air Temperature [C] !Hourly
10320,7,STORY 7 CORE SPACE ZN,Zone Air Relative Humidity [%] !Daily [Value,Min,Hour,Minute,Max,Hour,Minute]
10359,1,STORY 7 EAST PERIMETER SPACE ZN,Zone Air Temperature [C] !Hourly
10360,7,STORY 7 EAST PERIMETER SPACE ZN,Zone Air Relative Humidity [%] !Daily [Value,Min,Hour,Minute,Max,Hour,Minute]
10399,1,STORY 7 NORTH PERIMETER SPACE ZN,Zone Air Temperature [C] !Hourly
10400,7,STORY 7 NORTH PERIMETER SPACE ZN,Zone Air Relative Humidity [%] !Daily [Value,Min,Hour,Minute,Max,Hour,Minute]
10439,1,STORY 7 SOUTH PERIMETER SPACE ZN,Zone Air Temperature [C] !Hourly
10440,7,STORY 7 SOUTH PERIMETER SPACE ZN,Zone Air Relative Humidity [%] !Daily [Value,Min,Hour,Minute,Max,Hour,Minute]
10479,1,STORY 7 WEST PERIMETER SPACE ZN,Zone Air Temperature [C] !Hourly
10480,7,STORY 7 WEST PERIMETER SPACE ZN,Zone Air Relative Humidity [%] !Daily [Value,Min,Hour,Minute,Max,Hour,Minute]
10519,1,STORY 8 CORE SPACE ZN,Zone Air Temperature [C] !Hourly
10520,7,STORY 8 CORE SPACE ZN,Zone Air Relative Humidity [%] !Daily [Value,Min,Hour,Minute,Max,Hour,Minute]
10559,1,STORY 8 EAST PERIMETER SPACE ZN,Zone Air Temperature [C] !Hourly
10560,7,STORY 8 EAST PERIMETER SPACE ZN,Zone Air Relative Humidity [%] !Daily [Value,Min,Hour,Minute,Max,Hour,Minute]
10599,1,STORY 8 NORTH PERIMETER SPACE ZN,Zone Air Temperature [C] !Hourly
10600,7,STORY 8 NORTH PERIMETER SPACE ZN,Zone Air Relative Humidity [%] !Daily [Value,Min,Hour,Minute,Max,Hour,Minute]
10639,1,STORY 8 SOUTH PERIMETER SPACE ZN,Zone Air Temperature [C] !Hourly
10640,7,STORY 8 SOUTH PERIMETER SPACE ZN,Zone Air Relative Humidity [%] !Daily [Value,Min,Hour,Minute,Max,Hour,Minute]
10679,1,STORY 8 WEST PERIMETER SPACE ZN,Zone Air Temperature [C] !Hourly
10680,7,STORY 8 WEST PERIMETER SPACE ZN,Zone Air Relative Humidity [%] !Daily [Value,Min,Hour,Minute,Max,Hour,Minute]
10719,1,STORY 9 CORE SPACE ZN,Zone Air Temperature [C] !Hourly
10720,7,STORY 9 CORE SPACE ZN,Zone Air Relative Humidity [%] !Daily [Value,Min,Hour,Minute,Max,Hour,Minute]
10759,1,STORY 9 EAST PERIMETER SPACE ZN,Zone Air Temperature [C] !Hourly
10760,7,STORY 9 EAST PERIMETER SPACE ZN,Zone Air Relative Humidity [%] !Daily [Value,Min,Hour,Minute,Max,Hour,Minute]
10799,1,STORY 9 NORTH PERIMETER SPACE ZN,Zone Air Temperature [C] !Hourly
10800,7,STORY 9 NORTH PERIMETER SPACE ZN,Zone Air Relative Humidity [%] !Daily [Value,Min,Hour,Minute,Max,Hour,Minute]
10839,1,STORY 9 SOUTH PERIMETER SPACE ZN,Zone Air Temperature [C] !Hourly
10840,7,STORY 9 SOUTH PERIMETER SPACE ZN,Zone Air Relative Humidity [%] !Daily [Value,Min,Hour,Minute,Max,Hour,Minute]
10879,1,STORY 9 WEST PERIMETER SPACE ZN,Zone Air Temperature [C] !Hourly
10880,7,STORY 9 WEST PERIMETER SPACE ZN,Zone Air Relative Humidity [%] !Daily [Value,Min,Hour,Minute,Max,Hour,Minute]
10,1,Electricity:Facility [J] !TimeStep
11030,1,DistrictCooling:Facility [J] !TimeStep
10993,1,DistrictHeating:Facility [J] !TimeStep
End of Data Dictionary
1,FORT MCMURRAY AP ANN CLG .4% CONDNS DB=>MWB,  56.65,-111.22,  -7.00, 369.10
2,1, 7,21, 0, 1, 0.00,10.00,SummerDesignDay
8,14.218136923962174
10,926778536.8562064
10993,9240261.323552004
11030,548476373.0107508
2,1, 7,21, 0, 1,10.00,20.00,SummerDesignDay
8,14.171982153293495
10,926778536.8562064
10993,12117733.977555018
11030,530709832.5428095
2,1, 7,21, 0, 1,20.00,30.00,SummerDesignDay
8,14.125744780286427
10,926778536.8562064
10993,14866539.416582566
11030,514230354.94614097
2,1, 7,21, 0, 1,30.00,40.00,SummerDesignDay
8,14.079436086331978
10,926778536.8562064
10993,17458608.701493786
11030,498177929.3982085
2,1, 7,21, 0, 1,40.00,50.00,SummerDesignDay
8,14.033050387896898
10,926778536.8562064
10993,20069725.428113685
11030,482136985.4096049
2,1, 7,21, 0, 1,50.00,60.00,SummerDesignDay
8,13.986581233564835
10,926778536.8562064
10993,22655286.247077183
11030,466110531.0933872
2,1, 7,21, 0, 1, 0.00,60.00,SummerDesignDay
5319,24.324096794805784
5359,24.0
5399,22.000001904381365
5439,24.124265790986614
5479,22.427841268769499
5519,24.237022048290187
5559,24.000000000000019
5599,24.000000000000019
5639,25.79625435541274
5679,24.000000000000019
5719,24.96845022888878
5759,23.48507232033249
5799,23.33936204985103
5839,25.541720087771016
5879,24.64700349829071
5919,22.533038042146719
5959,26.102741504504097
5999,22.302121316370458
6039,22.643142294779847
6079,24.00000000000001
6119,24.07587690621573
6159,22.51225137082321
6199,21.52631198837444
6239,24.525859167693825
6279,23.15471815189875
6319,23.73689357779051
6359,22.00003669613933
6399,22.48712542685216
6439,24.000000000000019
6479,24.000000000000026
6519,23.763536899364479
6559,24.8856569528531
6599,23.3106534705806
6639,23.291011026940283
6679,24.000000000000005
6719,25.1231710006321
6759,23.75790934208815
6799,24.000000000000026
6839,24.00000000000004
6879,25.773528596571358
6919,23.30246230711289
6959,21.597463647143799
6999,23.99999999999997
7039,25.329374823897824
7079,21.92844099960452
7119,25.378307939201318
7159,25.231005489232517
7199,24.0
7239,25.494188682507248
7279,24.808970940723598
7319,24.0
7359,23.47237842152387
7399,24.000000000000044
7439,24.000000000000019
7479,25.81566299307853
7519,24.000000000000015
7559,23.90590065225057
7599,24.000000000000019
7639,22.28478833132674
7679,24.000000000000015
7719,24.470564615236176
7759,25.41416049251534
7799,24.469811836143767
7839,24.98188811232067
7879,25.692690091137054
7919,24.000000000000005
7959,24.000000000000026
7999,24.653411843960425
8039,24.000000000000005
8079,23.999999999999987
8119,23.262579063931658
8159,24.120670488667505
8199,23.77600096304863
8239,25.372963332510893
8279,24.000000000000026
8319,24.000000000000005
8359,25.110007535491744
8399,23.91730977940408
8439,24.731718075170237