Program Version,EnergyPlus, Version 8.9.0-eba93e8e1b, YMD=2019.03.22 19:26
1,5,Environment Title[],Latitude[deg],Longitude[deg],Time Zone[],Elevation[m]
2,8,Day of Simulation[],Month[],Day of Month[],DST Indicator[1=yes 0=no],Hour[],StartMinute[],EndMinute[],DayType
3,5,Cumulative Day of Simulation[],Month[],Day of Month[],DST Indicator[1=yes 0=no],DayType  ! When Daily Report Variables Requested
4,2,Cumulative Days of Simulation[],Month[]  ! When Monthly Report Variables Requested
5,1,Cumulative Days of Simulation[] ! When Run Period Report Variables Requested
6,1,Calendar Year of Simulation[] ! When Annual Report Variables Requested
7,9,Environment,Site Outdoor Air Drybulb Temperature [C] !Monthly [Value,Min,Day,Hour,Minute,Max,Day,Hour,Minute]
8,1,Environment,Site Outdoor Air Wetbulb Temperature [C] !TimeStep
357,1,CONVENTION CENTRE EXHIBIT SPACE-SPACE FUNCTION ZN,Zone Air Temperature [C] !Hourly
358,7,CONVENTION CENTRE EXHIBIT SPACE-SPACE FUNCTION ZN,Zone Air Relative Humidity [%] !Daily [Value,Min,Hour,Minute,Max,Hour,Minute]
397,1,WASHROOM - OTHER-SCH-J-SPACE FUNCTION ZN,Zone Air Temperature [C] !Hourly
398,7,WASHROOM - OTHER-SCH-J-SPACE FUNCTION ZN,Zone Air Relative Humidity [%] !Daily [Value,Min,Hour,Minute,Max,Hour,Minute]
437,1,WASHROOM - SPACE DESIGNED TO ANSI/IES RP-28 (USED PRIMARILY BY RESIDENTS)-SCH-D-SPACE FUNCTION ZN,Zone Air Temperature [C] !Hourly
438,7,WASHROOM - SPACE DESIGNED TO ANSI/IES RP-28 (USED PRIMARILY BY RESIDENTS)-SCH-D-SPACE FUNCTION ZN,Zone Air Relative Humidity [%] !Daily [Value,Min,Hour,Minute,Max,Hour,Minute]
477,1,WASHROOM OTHER-SCH-K-SPACE FUNCTION ZN,Zone Air Temperature [C] !Hourly
478,7,WASHROOM OTHER-SCH-K-SPACE FUNCTION ZN,Zone Air Relative Humidity [%] !Daily [Value,Min,Hour,Minute,Max,Hour,Minute]
517,1,WORKSHOP-SPACE FUNCTION ZN,Zone Air Temperature [C] !Hourly
518,7,WORKSHOP-SPACE FUNCTION ZN,Zone Air Relative Humidity [%] !Daily [Value,Min,Hour,Minute,Max,Hour,Minute]
10,1,Electricity:Facility [J] !TimeStep
668,1,DistrictCooling:Facility [J] !TimeStep
631,1,DistrictHeating:Facility [J] !TimeStep
End of Data Dictionary
1,FORT MCMURRAY AP ANN CLG .4% CONDNS DB=>MWB,  56.65,-111.22,  -7.00, 369.10
2,1, 7,21, 0, 1, 0.00,10.00,SummerDesignDay
8,14.218136923962174
10,13337989.302798603
631,0.0
668,0.0
2,1, 7,21, 0, 1,10.00,20.00,SummerDesignDay
8,14.171982153293495
10,13337989.302798603
631,0.0
668,0.0
2,1, 7,21, 0, 1,20.00,30.00,SummerDesignDay
8,14.125744780286427
10,13337989.302798603
631,0.0
668,0.0
2,1, 7,21, 0, 1,30.00,40.00,SummerDesignDay
8,14.079436086331978
10,13337989.302798603
631,0.0
668,0.0
2,1, 7,21, 0, 1,40.00,50.00,SummerDesignDay
8,14.033050387896898
10,13337989.302798603
631,0.0
668,0.0
2,1, 7,21, 0, 1,50.00,60.00,SummerDesignDay
8,13.986581233564835
10,13337989.302798603
631,0.0
668,0.0
2,1, 7,21, 0, 1, 0.00,60.00,SummerDesignDay
357,21.268133726772314
397,23.91791536931108
437,22.638007418595238
477,25.23049661170479
517,20.78779388145146
2,1, 7,21, 0, 2, 0.00,10.00,SummerDesignDay
8,13.95555882260429
10,13337989.302798603
631,0.0
668,0.0
2,1, 7,21, 0, 2,10.00,20.00,SummerDesignDay
8,13.924507755336454
10,13337989.302798603
631,0.0
668,0.0
2,1, 7,21, 0, 2,20.00,30.00,SummerDesignDay
8,13.893416042989206
10,13337989.302798603
631,0.0
668,0.0
2,1, 7,21, 0, 2,30.00,40.00,SummerDesignDay
8,13.862289589689029
10,13337989.302798603
631,0.0
668,0.0
2,1, 7,21, 0, 2,40.00,50.00,SummerDesignDay
8,13.831134407608739
10,13337989.302798603
631,0.0
668,0.0
2,1, 7,21, 0, 2,50.00,60.00,SummerDesignDay
8,13.799938415548118
10,13337989.302798603
631,0.0
668,0.0
2,1, 7,21, 0, 2, 0.00,60.00,SummerDesignDay
357,20.80081521445796
397,23.665238475351985
437,22.123045978210969
477,24.824097891238379
517,20.2525148243831
2,1, 7,21, 0, 3, 0.00,10.00,SummerDesignDay
8,13.776521671948676
10,13337989.302798603
631,0.0
668,0.0
2,1, 7,21, 0, 3,10.00,20.00,SummerDesignDay
8,13.753085235778466
10,13337989.302798603
631,0.0
668,0.0
2,1, 7,21, 0, 3,20.00,30.00,SummerDesignDay
8,13.729636002354969
10,13337989.302798603
631,0.0
668,0.0
2,1, 7,21, 0, 3,30.00,40.00,SummerDesignDay
8,13.706147375533054
10,13337989.302798603
631,0.0
668,0.0
2,1, 7,21, 0, 3,40.00,50.00,SummerDesignDay
8,13.682651961920304
10,13337989.302798603
631,0.0
668,0.0
2,1, 7,21, 0, 3,50.00,60.00,SummerDesignDay
8,13.659136670643687
10,13337989.302798603
631,0.0
668,0.0
2,1, 7,21, 0, 3, 0.00,60.00,SummerDesignDay
357,20.450485255650965
397,23.408398156113383
437,21.765759596826496
477,24.52042989047745
517,19.866076406593785
2,1, 7,21, 0, 4, 0.00,10.00,SummerDesignDay
8,13.63560137410855
10,13337989.302798603
631,0.0
668,0.0
2,1, 7,21, 0, 4,10.00,20.00,SummerDesignDay
8,13.612040802606578
10,13337989.302798603
631,0.0
668,0.0
2,1, 7,21, 0, 4,20.00,30.00,SummerDesignDay
8,13.58846620506876
10,13337989.302798603
631,0.0
668,0.0
2,1, 7,21, 0, 4,30.00,40.00,SummerDesignDay
8,13.56487178447336
10,13337989.302798603
631,0.0
668,0.0
2,1, 7,21, 0, 4,40.00,50.00,SummerDesignDay
8,13.541257354069103
10,13337989.302798603
631,0.0
668,0.0
2,1, 7,21, 0, 4,50.00,60.00,SummerDesignDay
8,13.517617463812285
10,13337989.302798603
631,0.0
668,0.0
2,1, 7,21, 0, 4, 0.00,60.00,SummerDesignDay
357,20.179556161365075
397,23.188983988063879
437,21.50491018570844
477,24.289273897090536
517,19.56237726246545
2,1, 7,21, 0, 5, 0.00,10.00,SummerDesignDay
8,13.50185415824011
10,13337989.302798603
631,0.0
668,0.0
2,1, 7,21, 0, 5,10.00,20.00,SummerDesignDay
8,13.486076034032447
10,13337989.302798603
631,0.0
668,0.0
2,1, 7,21, 0, 5,20.00,30.00,SummerDesignDay
8,13.470289340350983
10,13337989.302798603
631,0.0
668,0.0
2,1, 7,21, 0, 5,30.00,40.00,SummerDesignDay
8,13.454493322631063
10,13337989.302798603
631,0.0
668,0.0
2,1, 7,21, 0, 5,40.00,50.00,SummerDesignDay
8,13.438688835118548
10,13337989.302798603
631,0.0
668,0.0
2,1, 7,21, 0, 5,50.00,60.00,SummerDesignDay
8,13.422888173889437
10,13337989.302798603
631,0.0
668,0.0
2,1, 7,21, 0, 5, 0.00,60.00,SummerDesignDay
357,19.956714988020729
397,23.016024170093819
437,21.302943873900838
477,24.10524829748644
517,19.30680041448625
2,1, 7,21, 0, 6, 0.00,10.00,SummerDesignDay
8,13.438688835118548
10,15813888.771326162
631,0.0
668,0.0
2,1, 7,21, 0, 6,10.00,20.00,SummerDesignDay
8,13.454493322631063
10,15813888.771326162
631,0.0
668,0.0
2,1, 7,21, 0, 6,20.00,30.00,SummerDesignDay
8,13.470289340350983
10,15813888.771326162
631,0.0
668,0.0
2,1, 7,21, 0, 6,30.00,40.00,SummerDesignDay
8,13.486076034032447
10,15813888.771326162
631,0.0
668,0.0
2,1, 7,21, 0, 6,40.00,50.00,SummerDesignDay
8,13.50185415824011
10,15813888.771326162
631,0.0
668,0.0
2,1, 7,21, 0, 6,50.00,60.00,SummerDesignDay
8,13.517617463812285
10,15813888.771326162
631,0.0
668,0.0
2,1, 7,21, 0, 6, 0.00,60.00,SummerDesignDay
357,19.832177837174183
397,23.26920514498161
437,21.170023751260975
477,24.035409035182665
517,19.19469879516304
2,1, 7,21, 0, 7, 0.00,10.00,SummerDesignDay
8,13.572736920571789
10,21852551.304622406
631,12755301.261324147
668,0.0
2,1, 7,21, 0, 7,10.00,20.00,SummerDesignDay
8,13.627748229152554
10,21852551.304622406
631,0.0
668,0.0
2,1, 7,21, 0, 7,20.00,30.00,SummerDesignDay
8,13.682651961920304
10,21852551.304622406
631,0.0
668,0.0
2,1, 7,21, 0, 7,30.00,40.00,SummerDesignDay
8,13.737448093244995
10,21852551.304622406
631,455352.1554957181
668,2629411.786102639
2,1, 7,21, 0, 7,40.00,50.00,SummerDesignDay
8,13.792137011831216
10,21852551.304622406
631,2240457.086127102
668,2519219.7696426606
2,1, 7,21, 0, 7,50.00,60.00,SummerDesignDay
8,13.846719282840333
10,21852551.304622406
631,284159.80610437659
668,2391556.4600275557
2,1, 7,21, 0, 7, 0.00,60.00,SummerDesignDay
357,19.92748176530614
397,23.877795857864784
437,21.182934377530008
477,24.831159248599425
517,20.151536221569157
2,1, 7,21, 0, 8, 0.00,10.00,SummerDesignDay
8,13.978831900527043
10,30293117.674602719
631,30659990.968376947
668,4461090.162852903
2,1, 7,21, 0, 8,10.00,20.00,SummerDesignDay
8,14.110321014287419
10,30293117.674602719
631,676216.4955585534
668,5049180.198668191
2,1, 7,21, 0, 8,20.00,30.00,SummerDesignDay
8,14.241191509616986
10,30293117.674602719
631,11739634.841140584
668,5327292.953759106
2,1, 7,21, 0, 8,30.00,40.00,SummerDesignDay
8,14.371447531304272
10,30293117.674602719
631,66159.97617128237
668,5631587.137479157
2,1, 7,21, 0, 8,40.00,50.00,SummerDesignDay
8,14.501093766564925
10,30293117.674602719
631,0.0
668,5918948.130919815
2,1, 7,21, 0, 8,50.00,60.00,SummerDesignDay
8,14.630134792273804
10,30293117.674602719
631,0.0
668,6201142.4261123579
2,1, 7,21, 0, 8, 0.00,60.00,SummerDesignDay
357,20.36307063145955
397,23.999999999879873
437,21.420349134478319
477,25.93382036750752
517,22.15657995826193
2,1, 7,21, 0, 9, 0.00,10.00,SummerDesignDay
8,14.773641492809972
10,58683994.28481011
631,26001029.275420488
668,6409970.924589534
2,1, 7,21, 0, 9,10.00,20.00,SummerDesignDay
8,14.91640948124148
10,58683994.28481011
631,0.0
668,6706519.99211213
2,1, 7,21, 0, 9,20.00,30.00,SummerDesignDay
8,15.05843890714102
10,58683994.28481011
631,0.0
668,13914653.211458864
2,1, 7,21, 0, 9,30.00,40.00,SummerDesignDay
8,15.199735893563798
10,58683994.28481011
631,0.0
668,24372936.797499986
2,1, 7,21, 0, 9,40.00,50.00,SummerDesignDay
8,15.340306256439395
10,58683994.28481011
631,0.0
668,26206811.927300119
2,1, 7,21, 0, 9,50.00,60.00,SummerDesignDay
8,15.48015101768072
10,58683994.28481011
631,0.0
668,32950284.597202206
2,1, 7,21, 0, 9, 0.00,60.00,SummerDesignDay
357,23.245820448826014
397,24.000000000000005
437,22.605116737485106
477,26.804848155417536
517,23.68965981773115
2,1, 7,21, 0,10, 0.00,10.00,SummerDesignDay
8,15.60467292907716
10,81045474.22791407
631,0.0
668,47500697.57723071
2,1, 7,21, 0,10,10.00,20.00,SummerDesignDay
8,15.72862731650033
10,81045474.22791407
631,0.0
668,62941472.59161503
2,1, 7,21, 0,10,20.00,30.00,SummerDesignDay
8,15.852017409284228
10,81045474.22791407
631,0.0
668,71825619.87429294
2,1, 7,21, 0,10,30.00,40.00,SummerDesignDay
8,15.974848118364367
10,81045474.22791407
631,0.0
668,73630748.08901119
2,1, 7,21, 0,10,40.00,50.00,SummerDesignDay
8,16.097123145563505
10,81045474.22791407
631,0.0
668,76338066.61290035
2,1, 7,21, 0,10,50.00,60.00,SummerDesignDay
8,16.218846351168599
10,81045474.22791407
631,0.0
668,78873022.34719473
2,1, 7,21, 0,10, 0.00,60.00,SummerDesignDay
357,23.99998963778255
397,24.000000000000005
437,23.93295480006924
477,27.032992444940196
517,23.999999988976098
2,1, 7,21, 0,11, 0.00,10.00,SummerDesignDay
8,16.325793027093189
10,80932933.34298101
631,0.0
668,83417222.59933849
2,1, 7,21, 0,11,10.00,20.00,SummerDesignDay
8,16.432322158488288
10,80932933.34298101
631,0.0
668,85296685.66995016
2,1, 7,21, 0,11,20.00,30.00,SummerDesignDay
8,16.538424180249178
10,80932933.34298101
631,0.0
668,87018002.20490852
2,1, 7,21, 0,11,30.00,40.00,SummerDesignDay
8,16.644108396469087
10,80932933.34298101
631,0.0
668,88682892.71382872
2,1, 7,21, 0,11,40.00,50.00,SummerDesignDay
8,16.749376736593655
10,80932933.34298101
631,0.0
668,90281232.80715546
2,1, 7,21, 0,11,50.00,60.00,SummerDesignDay
8,16.854232613237156
10,80932933.34298101
631,0.0
668,91833121.63269186
2,1, 7,21, 0,11, 0.00,60.00,SummerDesignDay
357,24.000000000000005
397,23.999999999999998
437,23.999999999590317
477,27.157140955225615
517,24.000000000000058
2,1, 7,21, 0,12, 0.00,10.00,SummerDesignDay
8,16.92390823520069
10,79751254.05118376
631,0.0
668,91861512.40496715
2,1, 7,21, 0,12,10.00,20.00,SummerDesignDay
8,16.99340178950456
10,79751254.05118376
631,0.0
668,92749670.49421355
2,1, 7,21, 0,12,20.00,30.00,SummerDesignDay
8,17.06272006743463
10,79751254.05118376
631,0.0
668,93745246.08904626
2,1, 7,21, 0,12,30.00,40.00,SummerDesignDay
8,17.131853229172639
10,79751254.05118376
631,0.0
668,94721768.449651
2,1, 7,21, 0,12,40.00,50.00,SummerDesignDay
8,17.200807172194087
10,79751254.05118376
631,0.0
668,95697179.19216413
2,1, 7,21, 0,12,50.00,60.00,SummerDesignDay
8,17.269582116758607
10,79751254.05118376
631,0.0
668,96670711.46623361
2,1, 7,21, 0,12, 0.00,60.00,SummerDesignDay
357,24.000000000000019
397,24.00000000000001
437,24.000000000000019
477,27.497116994706869
517,23.999999999999959
2,1, 7,21, 0,13, 0.00,10.00,SummerDesignDay
8,17.32447360221357
10,78457033.87445346
631,0.0
668,96436194.03797794
2,1, 7,21, 0,13,10.00,20.00,SummerDesignDay
8,17.379251291230806
10,78457033.87445346
631,0.0
668,97116400.61103963
2,1, 7,21, 0,13,20.00,30.00,SummerDesignDay
8,17.433921312061729
10,78457033.87445346
631,0.0
668,97921652.00114672
2,1, 7,21, 0,13,30.00,40.00,SummerDesignDay
8,17.488473222557489
10,78457033.87445346
631,0.0
668,98716847.18673425
2,1, 7,21, 0,13,40.00,50.00,SummerDesignDay
8,17.542913447755134
10,78457033.87445346
631,0.0
668,99511077.48716343
2,1, 7,21, 0,13,50.00,60.00,SummerDesignDay
8,17.59724609886134
10,78457033.87445346
631,0.0
668,100302945.4656366
2,1, 7,21, 0,13, 0.00,60.00,SummerDesignDay
357,24.000000000000019
397,24.0
437,24.00000000000001
477,27.802629429274899
517,24.00000000000003
2,1, 7,21, 0,14, 0.00,10.00,SummerDesignDay
8,17.6311450462694
10,78457033.87445346
631,0.0
668,100804137.64105442
2,1, 7,21, 0,14,10.00,20.00,SummerDesignDay
8,17.665000449016245
10,78457033.87445346
631,0.0
668,101304032.76225114
2,1, 7,21, 0,14,20.00,30.00,SummerDesignDay
8,17.698812743128934
10,78457033.87445346
631,0.0
668,101802955.2472238
2,1, 7,21, 0,14,30.00,40.00,SummerDesignDay
8,17.732582050940107
10,78457033.87445346
631,0.0
668,102300940.97719813
2,1, 7,21, 0,14,40.00,50.00,SummerDesignDay
8,17.766307345121004
10,78457033.87445346
631,0.0
668,102798029.69682667
2,1, 7,21, 0,14,50.00,60.00,SummerDesignDay
8,17.79999023167558
10,78457033.87445346
631,0.0
668,103294222.1776498
2,1, 7,21, 0,14, 0.00,60.00,SummerDesignDay
357,24.000000000000026
397,24.000000000000019
437,24.000000000000026
477,28.043311188340984
517,24.00000000000003
2,1, 7,21, 0,15, 0.00,10.00,SummerDesignDay
8,17.79999023167558
10,78569574.75938651
631,0.0
668,104615656.76697771
2,1, 7,21, 0,15,10.00,20.00,SummerDesignDay
8,17.79999023167558
10,78569574.75938651
631,0.0
668,104702576.54285506
2,1, 7,21, 0,15,20.00,30.00,SummerDesignDay
8,17.79999023167558
10,78569574.75938651
631,0.0
668,104723827.23495637
2,1, 7,21, 0,15,30.00,40.00,SummerDesignDay
8,17.79999023167558
10,78569574.75938651
631,0.0
668,104749345.02118896
2,1, 7,21, 0,15,40.00,50.00,SummerDesignDay
8,17.79999023167558
10,78569574.75938651
631,0.0
668,104769379.91610757
2,1, 7,21, 0,15,50.00,60.00,SummerDesignDay
8,17.79999023167558
10,78569574.75938651
631,0.0
668,104787254.25453422
2,1, 7,21, 0,15, 0.00,60.00,SummerDesignDay
357,24.000000000000033
397,24.00000000000001
437,24.000000000000026
477,28.204445540343767
517,24.000000000000015
2,1, 7,21, 0,16, 0.00,10.00,SummerDesignDay
8,17.759562446305357
10,78569574.75938651
631,0.0
668,104227527.34551573
2,1, 7,21, 0,16,10.00,20.00,SummerDesignDay
8,17.71907809634183
10,78569574.75938651
631,0.0
668,103664309.20468232
2,1, 7,21, 0,16,20.00,30.00,SummerDesignDay
8,17.67853788661001
10,78569574.75938651
631,0.0
668,103097765.66024357
2,1, 7,21, 0,16,30.00,40.00,SummerDesignDay
8,17.63791796367351
10,78569574.75938651
631,0.0
668,102530645.9891069
2,1, 7,21, 0,16,40.00,50.00,SummerDesignDay
8,17.59724609886134
10,78569574.75938651
631,0.0
668,101962895.70834036
2,1, 7,21, 0,16,50.00,60.00,SummerDesignDay
8,17.55650676726033
10,78569574.75938651
631,0.0
668,101393700.02042464
2,1, 7,21, 0,16, 0.00,60.00,SummerDesignDay
357,24.000000000000026
397,24.000000000000005
437,24.00000000000004
477,28.249717215925445
517,24.00000000000003
2,1, 7,21, 0,17, 0.00,10.00,SummerDesignDay
8,17.50209486331892
10,77788259.66573864
631,0.0
668,97140459.52078143
2,1, 7,21, 0,17,10.00,20.00,SummerDesignDay
8,17.447570789624618
10,77788259.66573864
631,0.0
668,96027728.28114106
2,1, 7,21, 0,17,20.00,30.00,SummerDesignDay
8,17.392929544208135
10,77788259.66573864
631,0.0
668,95256406.33854258
2,1, 7,21, 0,17,30.00,40.00,SummerDesignDay
8,17.33818013976614
10,77788259.66573864
631,0.0
668,94478360.79318667
2,1, 7,21, 0,17,40.00,50.00,SummerDesignDay
8,17.283317298559309
10,77788259.66573864
631,0.0
668,93731170.83087462
2,1, 7,21, 0,17,50.00,60.00,SummerDesignDay
8,17.22833552437677
10,77788259.66573864
631,0.0
668,92996718.36790642
2,1, 7,21, 0,17, 0.00,60.00,SummerDesignDay
357,24.000000000000026
397,24.000000000000015
437,24.000000000000015
477,28.874584705154523
517,24.00000000000007
2,1, 7,21, 0,18, 0.00,10.00,SummerDesignDay
8,17.159453019160176
10,68328448.01454783
631,0.0
668,82473133.66364405
2,1, 7,21, 0,18,10.00,20.00,SummerDesignDay
8,17.090391773337136
10,68328448.01454783
631,0.0
668,80663134.79988116
2,1, 7,21, 0,18,20.00,30.00,SummerDesignDay
8,17.021151077964786
10,68328448.01454783
631,0.0
668,79530672.85772798
2,1, 7,21, 0,18,30.00,40.00,SummerDesignDay
8,16.951729380464653
10,68328448.01454783
631,0.0
668,78368401.20622635
2,1, 7,21, 0,18,40.00,50.00,SummerDesignDay
8,16.882126503829249
10,68328448.01454783
631,0.0
668,77272475.14026779
2,1, 7,21, 0,18,50.00,60.00,SummerDesignDay
8,16.812341807494034
10,68328448.01454783
631,0.0
668,76213414.99259389
2,1, 7,21, 0,18, 0.00,60.00,SummerDesignDay
357,24.000000000000015
397,24.000000000000005
437,24.0
477,29.448751563570345
517,24.00000000000007
2,1, 7,21, 0,19, 0.00,10.00,SummerDesignDay
8,16.707321072823203
10,59313923.131408829
631,0.0
668,65008847.99066201
2,1, 7,21, 0,19,10.00,20.00,SummerDesignDay
8,16.601881826644556
10,59313923.131408829
631,0.0
668,62880276.12032135
2,1, 7,21, 0,19,20.00,30.00,SummerDesignDay
8,16.496030555252849
10,59313923.131408829
631,0.0
668,61075245.83679743
2,1, 7,21, 0,19,30.00,40.00,SummerDesignDay
8,16.389760181474104
10,59313923.131408829
631,0.0
668,59030643.55514513
2,1, 7,21, 0,19,40.00,50.00,SummerDesignDay
8,16.283067654262039
10,59313923.131408829
631,0.0
668,57060471.66812077
2,1, 7,21, 0,19,50.00,60.00,SummerDesignDay
8,16.17595057957811
10,59313923.131408829
631,0.0
668,55126901.95462948
2,1, 7,21, 0,19, 0.00,60.00,SummerDesignDay
357,24.00000000000003
397,24.0
437,24.00000000000001
477,29.383164115330446
517,23.99999999999997
2,1, 7,21, 0,20, 0.00,10.00,SummerDesignDay
8,16.097123145563505
10,47692932.59640576
631,0.0
668,43627269.27747294
2,1, 7,21, 0,20,10.00,20.00,SummerDesignDay
8,16.018070242471564
10,47692932.59640576
631,0.0
668,41605642.82056463
2,1, 7,21, 0,20,20.00,30.00,SummerDesignDay
8,15.938779752340516
10,47692932.59640576
631,0.0
668,40038422.17944439
2,1, 7,21, 0,20,30.00,40.00,SummerDesignDay
8,15.85926152575189
10,47692932.59640576
631,0.0
668,38440290.56266625
2,1, 7,21, 0,20,40.00,50.00,SummerDesignDay
8,15.779503718563929
10,47692932.59640576
631,0.0
668,36888818.175641197
2,1, 7,21, 0,20,50.00,60.00,SummerDesignDay
8,15.699515709672767
10,47692932.59640576
631,0.0
668,35365299.29915907
2,1, 7,21, 0,20, 0.00,60.00,SummerDesignDay
357,24.000000000000015
397,23.999999999999998
437,24.000000000000005
477,28.40239901895193
517,24.0
2,1, 7,21, 0,21, 0.00,10.00,SummerDesignDay
8,15.63389147320404
10,45757229.37555693
631,0.0
668,33066088.786611577
2,1, 7,21, 0,21,10.00,20.00,SummerDesignDay
8,15.56810827419793
10,45757229.37555693
631,0.0
668,31684107.468278536
2,1, 7,21, 0,21,20.00,30.00,SummerDesignDay
8,15.502170882753524
10,45757229.37555693
631,0.0
668,30383391.179523726
2,1, 7,21, 0,21,30.00,40.00,SummerDesignDay
8,15.436068032613852
10,45757229.37555693
631,0.0
668,29045385.769170584
2,1, 7,21, 0,21,40.00,50.00,SummerDesignDay
8,15.369804371206009
10,45757229.37555693
631,0.0
668,27736376.808366226
2,1, 7,21, 0,21,50.00,60.00,SummerDesignDay
8,15.303384603594449
10,45757229.37555693
631,0.0
668,26447060.62615123
2,1, 7,21, 0,21, 0.00,60.00,SummerDesignDay
357,24.0
397,24.00000000000001
437,24.000000000000005
477,27.34052189336361
517,24.000000000000015
2,1, 7,21, 0,22, 0.00,10.00,SummerDesignDay
8,15.236797685071274
10,31543315.608510063
631,0.0
668,16552439.741608713
2,1, 7,21, 0,22,10.00,20.00,SummerDesignDay
8,15.170047891787942
10,31543315.608510063
631,0.0
668,16228369.378273085
2,1, 7,21, 0,22,20.00,30.00,SummerDesignDay
8,15.103134826860483
10,31543315.608510063
631,0.0
668,15884015.435402379
2,1, 7,21, 0,22,30.00,40.00,SummerDesignDay
8,15.036063385178485
10,31543315.608510063
631,0.0
668,15544683.087591935
2,1, 7,21, 0,22,40.00,50.00,SummerDesignDay
8,14.968821767219835
10,31543315.608510063
631,0.0
668,15214771.267551765
2,1, 7,21, 0,22,50.00,60.00,SummerDesignDay
8,14.90141525878635
10,31543315.608510063
631,0.0
668,14893857.94676707
2,1, 7,21, 0,22, 0.00,60.00,SummerDesignDay
357,23.377774029040883
397,24.000000000000005
437,24.0
477,26.697814945887616
517,23.28355364591543
2,1, 7,21, 0,23, 0.00,10.00,SummerDesignDay
8,14.848873673278373
10,25489216.217163817
631,0.0
668,9292454.45436241
2,1, 7,21, 0,23,10.00,20.00,SummerDesignDay
8,14.796237168136719
10,25489216.217163817
631,0.0
668,8531637.98946216
2,1, 7,21, 0,23,20.00,30.00,SummerDesignDay
8,14.743494321455645
10,25489216.217163817
631,0.0
668,8115512.051704116
2,1, 7,21, 0,23,30.00,40.00,SummerDesignDay
8,14.690649975253665
10,25489216.217163817
631,0.0
668,7723584.777421549
2,1, 7,21, 0,23,40.00,50.00,SummerDesignDay
8,14.637704281233117
10,25489216.217163817
631,0.0
668,7370139.807066196
2,1, 7,21, 0,23,50.00,60.00,SummerDesignDay
8,14.584656914839757
10,25489216.217163817
631,0.0
668,7241719.499330574
2,1, 7,21, 0,23, 0.00,60.00,SummerDesignDay
357,22.470650138627716
397,24.000000000000015
437,23.999003772407293
477,26.211223722772365
517,22.347885420896075
2,1, 7,21, 0,24, 0.00,10.00,SummerDesignDay
8,14.531507212058875
10,15926429.656259232
631,0.0
668,3419265.3702084945
2,1, 7,21, 0,24,10.00,20.00,SummerDesignDay
8,14.47825496413355
10,15926429.656259232
631,0.0
668,2922732.4093038847
2,1, 7,21, 0,24,20.00,30.00,SummerDesignDay
8,14.4249000133173
10,15926429.656259232
631,0.0
668,2725821.118491813
2,1, 7,21, 0,24,30.00,40.00,SummerDesignDay
8,14.371447531304272
10,15926429.656259232
631,0.0
668,2519488.6726036646
2,1, 7,21, 0,24,40.00,50.00,SummerDesignDay
8,14.31788619902223
10,15926429.656259232
631,0.0
668,2336554.032088596
2,1, 7,21, 0,24,50.00,60.00,SummerDesignDay
8,14.264220970176066
10,15926429.656259232
631,0.0
668,2166056.1463009186
2,1, 7,21, 0,24, 0.00,60.00,SummerDesignDay
357,21.83030056637619
397,24.000000000000005
437,23.445046458461133
477,25.72718973386351
517,21.50758234145802
3,1, 7,21, 0,SummerDesignDay
358,49.209266855293439,43.54037739864697,11,10,58.278795510607697, 6,50
398,48.113104627587627,44.24064774800996,22,30,56.17528303952746, 5,60
438,46.14313392170018,41.989917912354709,20,10,53.40595534760416, 7,10
478,41.681636427426877,36.9280109368402,17,50,45.784558356511848, 6,60
518,47.98427937254479,40.60788047173058,19,40,60.64400048426032, 6,30
4,1, 7
7,22.2505,16.5,21, 5,60,28.9,21,14,60
1,FORT MCMURRAY AP ANN HTG 99.6% CONDNS DB,  56.65,-111.22,  -7.00, 369.10
2,1, 1,21, 0, 1, 0.00,10.00,WinterDesignDay
8,-36.2
10,13337989.302798603
631,239560898.43780486
668,0.0
2,1, 1,21, 0, 1,10.00,20.00,WinterDesignDay
8,-36.2
10,13337989.302798603
631,240464925.35520435
668,0.0
2,1, 1,21, 0, 1,20.00,30.00,WinterDesignDay
8,-36.2
10,13337989.302798603
631,240796634.05720983
668,0.0
2,1, 1,21, 0, 1,30.00,40.00,WinterDesignDay
8,-36.2
10,13337989.302798603
631,241105984.0152943
668,0.0
2,1, 1,21, 0, 1,40.00,50.00,WinterDesignDay
8,-36.2
10,13337989.302798603
631,241350776.93076147
668,0.0
2,1, 1,21, 0, 1,50.00,60.00,WinterDesignDay
8,-36.2
10,13337989.302798603
631,241548191.11403454
668,0.0
2,1, 1,21, 0, 1, 0.00,60.00,WinterDesignDay
357,18.000000000000008
397,22.0
437,18.000000002326116
477,10.87475567465799
517,18.0
2,1, 1,21, 0, 2, 0.00,10.00,WinterDesignDay
8,-36.2
10,13337989.302798603
631,241708220.73883835
668,0.0
2,1, 1,21, 0, 2,10.00,20.00,WinterDesignDay
8,-36.2
10,13337989.302798603
631,241835288.01664049
668,0.0
2,1, 1,21, 0, 2,20.00,30.00,WinterDesignDay
8,-36.2
10,13337989.302798603
631,241941778.93532718
668,0.0
2,1, 1,21, 0, 2,30.00,40.00,WinterDesignDay
8,-36.2
10,13337989.302798603
631,242030871.66716374
668,0.0
2,1, 1,21, 0, 2,40.00,50.00,WinterDesignDay
8,-36.2
10,13337989.302798603
631,242105035.09453333
668,0.0
2,1, 1,21, 0, 2,50.00,60.00,WinterDesignDay
8,-36.2
10,13337989.302798603
631,242164687.4112816
668,0.0
2,1, 1,21, 0, 2, 0.00,60.00,WinterDesignDay
357,18.000000000000008
397,22.0
437,18.000000000000005
477,10.606970103549122
517,18.000000000000005
2,1, 1,21, 0, 3, 0.00,10.00,WinterDesignDay
8,-36.2
10,13337989.302798603
631,242216305.19054646
668,0.0
2,1, 1,21, 0, 3,10.00,20.00,WinterDesignDay
8,-36.2
10,13337989.302798603
631,242260891.11563687
668,0.0
2,1, 1,21, 0, 3,20.00,30.00,WinterDesignDay
8,-36.2
10,13337989.302798603
631,242298982.93063749
668,0.0
2,1, 1,21, 0, 3,30.00,40.00,WinterDesignDay
8,-36.2
10,13337989.302798603
631,242331688.53888146
668,0.0
2,1, 1,21, 0, 3,40.00,50.00,WinterDesignDay
8,-36.2
10,13337989.302798603
631,242358181.67810268
668,0.0
2,1, 1,21, 0, 3,50.00,60.00,WinterDesignDay
8,-36.2
10,13337989.302798603
631,242381930.89193023
668,0.0
2,1, 1,21, 0, 3, 0.00,60.00,WinterDesignDay
357,18.000000000000005
397,22.0
437,18.000000000000005
477,10.463433252559737
517,18.000000000000005
2,1, 1,21, 0, 4, 0.00,10.00,WinterDesignDay
8,-36.2
10,13337989.302798603
631,242403232.08242119
668,0.0
2,1, 1,21, 0, 4,10.00,20.00,WinterDesignDay
8,-36.2
10,13337989.302798603
631,242421958.55306084
668,0.0
2,1, 1,21, 0, 4,20.00,30.00,WinterDesignDay
8,-36.2
10,13337989.302798603
631,242436888.57924725
668,0.0
2,1, 1,21, 0, 4,30.00,40.00,WinterDesignDay
8,-36.2
10,13337989.302798603
631,242450569.9622025
668,0.0
2,1, 1,21, 0, 4,40.00,50.00,WinterDesignDay
8,-36.2
10,13337989.302798603
631,242463266.14875628
668,0.0
2,1, 1,21, 0, 4,50.00,60.00,WinterDesignDay
8,-36.2
10,13337989.302798603
631,242474693.53462104
668,0.0
2,1, 1,21, 0, 4, 0.00,60.00,WinterDesignDay
357,18.000000000000005
397,22.0
437,18.000000000000005
477,10.38943325027083
517,18.000000000000005
2,1, 1,21, 0, 5, 0.00,10.00,WinterDesignDay
8,-36.2
10,13337989.302798603
631,242484927.2173103
668,0.0
2,1, 1,21, 0, 5,10.00,20.00,WinterDesignDay
8,-36.2
10,13337989.302798603
631,242494099.22665865
668,0.0
2,1, 1,21, 0, 5,20.00,30.00,WinterDesignDay
8,-36.2
10,13337989.302798603
631,242501030.95479489
668,0.0
2,1, 1,21, 0, 5,30.00,40.00,WinterDesignDay
8,-36.2
10,13337989.302798603
631,242508871.4557136
668,0.0
2,1, 1,21, 0, 5,40.00,50.00,WinterDesignDay
8,-36.2
10,13337989.302798603
631,242514927.4933705
668,0.0
2,1, 1,21, 0, 5,50.00,60.00,WinterDesignDay
8,-36.2
10,13337989.302798603
631,242520304.4868363
668,0.0
2,1, 1,21, 0, 5, 0.00,60.00,WinterDesignDay
357,18.000000000000005
397,22.0
437,18.0
477,10.351155360799332
517,18.000000000000005
2,1, 1,21, 0, 6, 0.00,10.00,WinterDesignDay
8,-36.2
10,15813888.771326162
631,240902741.2400145
668,0.0
2,1, 1,21, 0, 6,10.00,20.00,WinterDesignDay
8,-36.2
10,15813888.771326162
631,240721568.8103822
668,0.0
2,1, 1,21, 0, 6,20.00,30.00,WinterDesignDay
8,-36.2
10,15813888.771326162
631,240699673.1468927
668,0.0
2,1, 1,21, 0, 6,30.00,40.00,WinterDesignDay
8,-36.2
10,15813888.771326162
631,240662325.22300343
668,0.0
2,1, 1,21, 0, 6,40.00,50.00,WinterDesignDay
8,-36.2
10,15813888.771326162
631,240632966.07307504
668,0.0
2,1, 1,21, 0, 6,50.00,60.00,WinterDesignDay
8,-36.2
10,15813888.771326162
631,240607999.20732505
668,0.0
2,1, 1,21, 0, 6, 0.00,60.00,WinterDesignDay
357,18.000000000000005
397,22.0
437,18.0
477,10.404082424883262
517,18.000000000000005
2,1, 1,21, 0, 7, 0.00,10.00,WinterDesignDay
8,-36.2
10,21852551.304622406
631,267383236.18475069
668,0.0
2,1, 1,21, 0, 7,10.00,20.00,WinterDesignDay
8,-36.2
10,21852551.304622406
631,245694232.12084974
668,0.0
2,1, 1,21, 0, 7,20.00,30.00,WinterDesignDay
8,-36.2
10,21852551.304622406
631,251691990.4857984
668,0.0
2,1, 1,21, 0, 7,30.00,40.00,WinterDesignDay
8,-36.2
10,21852551.304622406
631,246186877.54137076
668,0.0
2,1, 1,21, 0, 7,40.00,50.00,WinterDesignDay
8,-36.2
10,21852551.304622406
631,245893950.0195254
668,0.0
2,1, 1,21, 0, 7,50.00,60.00,WinterDesignDay
8,-36.2
10,21852551.304622406
631,245682583.12486584
668,0.0
2,1, 1,21, 0, 7, 0.00,60.00,WinterDesignDay
357,18.000000000000005
397,22.000000000000005
437,18.000000000000005
477,11.203374481963012
517,19.996573091285616
2,1, 1,21, 0, 8, 0.00,10.00,WinterDesignDay
8,-36.2
10,30293117.674602719
631,327218589.27237167
668,0.0
2,1, 1,21, 0, 8,10.00,20.00,WinterDesignDay
8,-36.2
10,30293117.674602719
631,187937405.7560738
668,0.0
2,1, 1,21, 0, 8,20.00,30.00,WinterDesignDay
8,-36.2
10,30293117.674602719
631,276594213.5469456
668,0.0
2,1, 1,21, 0, 8,30.00,40.00,WinterDesignDay
8,-36.2
10,30293117.674602719
631,256832214.3849995
668,0.0
2,1, 1,21, 0, 8,40.00,50.00,WinterDesignDay
8,-36.2
10,30293117.674602719
631,255234297.04647533
668,0.0
2,1, 1,21, 0, 8,50.00,60.00,WinterDesignDay
8,-36.2
10,30293117.674602719
631,255061675.9358524
668,0.0
2,1, 1,21, 0, 8, 0.00,60.00,WinterDesignDay
357,20.00777618526859
397,22.000000000000005
437,20.062554258166214
477,12.450609712057372
517,21.9970146681264
2,1, 1,21, 0, 9, 0.00,10.00,WinterDesignDay
8,-36.2
10,58683994.28481011
631,291203269.5710149
668,0.0
2,1, 1,21, 0, 9,10.00,20.00,WinterDesignDay
8,-36.2
10,58683994.28481011
631,188387437.17531339
668,0.0
2,1, 1,21, 0, 9,20.00,30.00,WinterDesignDay
8,-36.2
10,58683994.28481011
631,255922134.29954229
668,0.0
2,1, 1,21, 0, 9,30.00,40.00,WinterDesignDay
8,-36.2
10,58683994.28481011
631,238430597.4788223
668,0.0
2,1, 1,21, 0, 9,40.00,50.00,WinterDesignDay
8,-36.2
10,58683994.28481011
631,237548626.78786899
668,0.0
2,1, 1,21, 0, 9,50.00,60.00,WinterDesignDay
8,-36.2
10,58683994.28481011
631,236966793.03097529
668,0.0
2,1, 1,21, 0, 9, 0.00,60.00,WinterDesignDay
357,22.008502837585156
397,22.00000000000001
437,22.053940548245167
477,13.13460142083185
517,22.000000000000026
2,1, 1,21, 0,10, 0.00,10.00,WinterDesignDay
8,-36.2
10,81045474.22791407
631,216017436.55368264
668,0.0
2,1, 1,21, 0,10,10.00,20.00,WinterDesignDay
8,-36.2
10,81045474.22791407
631,213122301.68662737
668,0.0
2,1, 1,21, 0,10,20.00,30.00,WinterDesignDay
8,-36.2
10,81045474.22791407
631,212300658.9035179
668,0.0