Program Version,EnergyPlus, Version 8.9.0-eba93e8e1b, YMD=2019.03.06 21:39
1,5,Environment Title[],Latitude[deg],Longitude[deg],Time Zone[],Elevation[m]
2,8,Day of Simulation[],Month[],Day of Month[],DST Indicator[1=yes 0=no],Hour[],StartMinute[],EndMinute[],DayType
3,5,Cumulative Day of Simulation[],Month[],Day of Month[],DST Indicator[1=yes 0=no],DayType  ! When Daily Report Variables Requested
4,2,Cumulative Days of Simulation[],Month[]  ! When Monthly Report Variables Requested
5,1,Cumulative Days of Simulation[] ! When Run Period Report Variables Requested
6,1,Calendar Year of Simulation[] ! When Annual Report Variables Requested
7,9,Environment,Site Outdoor Air Drybulb Temperature [C] !Monthly [Value,Min,Day,Hour,Minute,Max,Day,Hour,Minute]
8,1,Environment,Site Outdoor Air Wetbulb Temperature [C] !TimeStep
7692,1,- UNDEFINED --SPACE FUNCTION ZN,Zone Air Temperature [C] !Hourly
7693,7,- UNDEFINED --SPACE FUNCTION ZN,Zone Air Relative Humidity [%] !Daily [Value,Min,Hour,Minute,Max,Hour,Minute]
7732,1,ATRIUM - H < 13M-SPACE FUNCTION ZN,Zone Air Temperature [C] !Hourly
7733,7,ATRIUM - H < 13M-SPACE FUNCTION ZN,Zone Air Relative Humidity [%] !Daily [Value,Min,Hour,Minute,Max,Hour,Minute]
7772,1,ATRIUM - H > 13M-SPACE FUNCTION ZN,Zone Air Temperature [C] !Hourly
7773,7,ATRIUM - H > 13M-SPACE FUNCTION ZN,Zone Air Relative Humidity [%] !Daily [Value,Min,Hour,Minute,Max,Hour,Minute]
7812,1,AUDIENCE - AUDITORIUM-SPACE FUNCTION ZN,Zone Air Temperature [C] !Hourly
7813,7,AUDIENCE - AUDITORIUM-SPACE FUNCTION ZN,Zone Air Relative Humidity [%] !Daily [Value,Min,Hour,Minute,Max,Hour,Minute]
7852,1,AUDIENCE - MOTION PICTURE-SPACE FUNCTION ZN,Zone Air Temperature [C] !Hourly
7853,7,AUDIENCE - MOTION PICTURE-SPACE FUNCTION ZN,Zone Air Relative Humidity [%] !Daily [Value,Min,Hour,Minute,Max,Hour,Minute]
7892,1,AUDIENCE - PERFORMANCE ARTS-SPACE FUNCTION ZN,Zone Air Temperature [C] !Hourly
7893,7,AUDIENCE - PERFORMANCE ARTS-SPACE FUNCTION ZN,Zone Air Relative Humidity [%] !Daily [Value,Min,Hour,Minute,Max,Hour,Minute]
7932,1,AUTOMOTIVE - REPAIR-SPACE FUNCTION ZN,Zone Air Temperature [C] !Hourly
7933,7,AUTOMOTIVE - REPAIR-SPACE FUNCTION ZN,Zone Air Relative Humidity [%] !Daily [Value,Min,Hour,Minute,Max,Hour,Minute]
7972,1,BANK - BANKING AND OFFICES-SPACE FUNCTION ZN,Zone Air Temperature [C] !Hourly
7973,7,BANK - BANKING AND OFFICES-SPACE FUNCTION ZN,Zone Air Relative Humidity [%] !Daily [Value,Min,Hour,Minute,Max,Hour,Minute]
8012,1,CLASSROOM/LECTURE/TRAINING-SPACE FUNCTION ZN,Zone Air Temperature [C] !Hourly
8013,7,CLASSROOM/LECTURE/TRAINING-SPACE FUNCTION ZN,Zone Air Relative Humidity [%] !Daily [Value,Min,Hour,Minute,Max,Hour,Minute]
8052,1,CONF./MEET./MULTI-PURPOSE-SPACE FUNCTION ZN,Zone Air Temperature [C] !Hourly
8053,7,CONF./MEET./MULTI-PURPOSE-SPACE FUNCTION ZN,Zone Air Relative Humidity [%] !Daily [Value,Min,Hour,Minute,Max,Hour,Minute]
8092,1,CONVENTION CENTRE - AUDIENCE-SPACE FUNCTION ZN,Zone Air Temperature [C] !Hourly
8093,7,CONVENTION CENTRE - AUDIENCE-SPACE FUNCTION ZN,Zone Air Relative Humidity [%] !Daily [Value,Min,Hour,Minute,Max,Hour,Minute]
8132,1,CONVENTION CENTRE - EXHIBIT-SPACE FUNCTION ZN,Zone Air Temperature [C] !Hourly
8133,7,CONVENTION CENTRE - EXHIBIT-SPACE FUNCTION ZN,Zone Air Relative Humidity [%] !Daily [Value,Min,Hour,Minute,Max,Hour,Minute]
8172,1,CORR. < 2.4M WIDE-SCH-A-SPACE FUNCTION ZN,Zone Air Temperature [C] !Hourly
8173,7,CORR. < 2.4M WIDE-SCH-A-SPACE FUNCTION ZN,Zone Air Relative Humidity [%] !Daily [Value,Min,Hour,Minute,Max,Hour,Minute]
8212,1,CORR. < 2.4M WIDE-SCH-B-SPACE FUNCTION ZN,Zone Air Temperature [C] !Hourly
8213,7,CORR. < 2.4M WIDE-SCH-B-SPACE FUNCTION ZN,Zone Air Relative Humidity [%] !Daily [Value,Min,Hour,Minute,Max,Hour,Minute]
8252,1,CORR. < 2.4M WIDE-SCH-C-SPACE FUNCTION ZN,Zone Air Temperature [C] !Hourly
8253,7,CORR. < 2.4M WIDE-SCH-C-SPACE FUNCTION ZN,Zone Air Relative Humidity [%] !Daily [Value,Min,Hour,Minute,Max,Hour,Minute]
8292,1,CORR. < 2.4M WIDE-SCH-D-SPACE FUNCTION ZN,Zone Air Temperature [C] !Hourly
8293,7,CORR. < 2.4M WIDE-SCH-D-SPACE FUNCTION ZN,Zone Air Relative Humidity [%] !Daily [Value,Min,Hour,Minute,Max,Hour,Minute]
8332,1,CORR. < 2.4M WIDE-SCH-E-SPACE FUNCTION ZN,Zone Air Temperature [C] !Hourly
8333,7,CORR. < 2.4M WIDE-SCH-E-SPACE FUNCTION ZN,Zone Air Relative Humidity [%] !Daily [Value,Min,Hour,Minute,Max,Hour,Minute]
8372,1,CORR. < 2.4M WIDE-SCH-F-SPACE FUNCTION ZN,Zone Air Temperature [C] !Hourly
8373,7,CORR. < 2.4M WIDE-SCH-F-SPACE FUNCTION ZN,Zone Air Relative Humidity [%] !Daily [Value,Min,Hour,Minute,Max,Hour,Minute]
8412,1,CORR. < 2.4M WIDE-SCH-G-SPACE FUNCTION ZN,Zone Air Temperature [C] !Hourly
8413,7,CORR. < 2.4M WIDE-SCH-G-SPACE FUNCTION ZN,Zone Air Relative Humidity [%] !Daily [Value,Min,Hour,Minute,Max,Hour,Minute]
8452,1,CORR. < 2.4M WIDE-SCH-H-SPACE FUNCTION ZN,Zone Air Temperature [C] !Hourly
8453,7,CORR. < 2.4M WIDE-SCH-H-SPACE FUNCTION ZN,Zone Air Relative Humidity [%] !Daily [Value,Min,Hour,Minute,Max,Hour,Minute]
8492,1,CORR. < 2.4M WIDE-SCH-I-SPACE FUNCTION ZN,Zone Air Temperature [C] !Hourly
8493,7,CORR. < 2.4M WIDE-SCH-I-SPACE FUNCTION ZN,Zone Air Relative Humidity [%] !Daily [Value,Min,Hour,Minute,Max,Hour,Minute]
8532,1,CORR. >= 2.4M WIDE-SCH-A-SPACE FUNCTION ZN,Zone Air Temperature [C] !Hourly
8533,7,CORR. >= 2.4M WIDE-SCH-A-SPACE FUNCTION ZN,Zone Air Relative Humidity [%] !Daily [Value,Min,Hour,Minute,Max,Hour,Minute]
8572,1,CORR. >= 2.4M WIDE-SCH-B-SPACE FUNCTION ZN,Zone Air Temperature [C] !Hourly
8573,7,CORR. >= 2.4M WIDE-SCH-B-SPACE FUNCTION ZN,Zone Air Relative Humidity [%] !Daily [Value,Min,Hour,Minute,Max,Hour,Minute]
8612,1,CORR. >= 2.4M WIDE-SCH-C-SPACE FUNCTION ZN,Zone Air Temperature [C] !Hourly
8613,7,CORR. >= 2.4M WIDE-SCH-C-SPACE FUNCTION ZN,Zone Air Relative Humidity [%] !Daily [Value,Min,Hour,Minute,Max,Hour,Minute]
8652,1,CORR. >= 2.4M WIDE-SCH-D-SPACE FUNCTION ZN,Zone Air Temperature [C] !Hourly
8653,7,CORR. >= 2.4M WIDE-SCH-D-SPACE FUNCTION ZN,Zone Air Relative Humidity [%] !Daily [Value,Min,Hour,Minute,Max,Hour,Minute]
8692,1,CORR. >= 2.4M WIDE-SCH-E-SPACE FUNCTION ZN,Zone Air Temperature [C] !Hourly
8693,7,CORR. >= 2.4M WIDE-SCH-E-SPACE FUNCTION ZN,Zone Air Relative Humidity [%] !Daily [Value,Min,Hour,Minute,Max,Hour,Minute]
8732,1,CORR. >= 2.4M WIDE-SCH-F-SPACE FUNCTION ZN,Zone Air Temperature [C] !Hourly
8733,7,CORR. >= 2.4M WIDE-SCH-F-SPACE FUNCTION ZN,Zone Air Relative Humidity [%] !Daily [Value,Min,Hour,Minute,Max,Hour,Minute]
8772,1,CORR. >= 2.4M WIDE-SCH-G-SPACE FUNCTION ZN,Zone Air Temperature [C] !Hourly
8773,7,CORR. >= 2.4M WIDE-SCH-G-SPACE FUNCTION ZN,Zone Air Relative Humidity [%] !Daily [Value,Min,Hour,Minute,Max,Hour,Minute]
8812,1,CORR. >= 2.4M WIDE-SCH-H-SPACE FUNCTION ZN,Zone Air Temperature [C] !Hourly
8813,7,CORR. >= 2.4M WIDE-SCH-H-SPACE FUNCTION ZN,Zone Air Relative Humidity [%] !Daily [Value,Min,Hour,Minute,Max,Hour,Minute]
8852,1,CORR. >= 2.4M WIDE-SCH-I-SPACE FUNCTION ZN,Zone Air Temperature [C] !Hourly
8853,7,CORR. >= 2.4M WIDE-SCH-I-SPACE FUNCTION ZN,Zone Air Relative Humidity [%] !Daily [Value,Min,Hour,Minute,Max,Hour,Minute]
8892,1,COURTHOUSE - CELL-SPACE FUNCTION ZN,Zone Air Temperature [C] !Hourly
8893,7,COURTHOUSE - CELL-SPACE FUNCTION ZN,Zone Air Relative Humidity [%] !Daily [Value,Min,Hour,Minute,Max,Hour,Minute]
8932,1,COURTHOUSE - CHAMBERS-SPACE FUNCTION ZN,Zone Air Temperature [C] !Hourly
8933,7,COURTHOUSE - CHAMBERS-SPACE FUNCTION ZN,Zone Air Relative Humidity [%] !Daily [Value,Min,Hour,Minute,Max,Hour,Minute]
8972,1,COURTHOUSE - COURTROOM-SPACE FUNCTION ZN,Zone Air Temperature [C] !Hourly
8973,7,COURTHOUSE - COURTROOM-SPACE FUNCTION ZN,Zone Air Relative Humidity [%] !Daily [Value,Min,Hour,Minute,Max,Hour,Minute]
9012,1,DINING - BAR LOUNGE/LEISURE-SPACE FUNCTION ZN,Zone Air Temperature [C] !Hourly
9013,7,DINING - BAR LOUNGE/LEISURE-SPACE FUNCTION ZN,Zone Air Relative Humidity [%] !Daily [Value,Min,Hour,Minute,Max,Hour,Minute]
9052,1,DINING - FAMILY SPACE-SPACE FUNCTION ZN,Zone Air Temperature [C] !Hourly
9053,7,DINING - FAMILY SPACE-SPACE FUNCTION ZN,Zone Air Relative Humidity [%] !Daily [Value,Min,Hour,Minute,Max,Hour,Minute]
9092,1,DINING - OTHER-SPACE FUNCTION ZN,Zone Air Temperature [C] !Hourly
9093,7,DINING - OTHER-SPACE FUNCTION ZN,Zone Air Relative Humidity [%] !Daily [Value,Min,Hour,Minute,Max,Hour,Minute]
9132,1,DORMITORY - LIVING QUARTERS-SPACE FUNCTION ZN,Zone Air Temperature [C] !Hourly
9133,7,DORMITORY - LIVING QUARTERS-SPACE FUNCTION ZN,Zone Air Relative Humidity [%] !Daily [Value,Min,Hour,Minute,Max,Hour,Minute]
9172,1,DRESS./FITT. - PERFORMANCE ARTS-SPACE FUNCTION ZN,Zone Air Temperature [C] !Hourly
9173,7,DRESS./FITT. - PERFORMANCE ARTS-SPACE FUNCTION ZN,Zone Air Relative Humidity [%] !Daily [Value,Min,Hour,Minute,Max,Hour,Minute]
9212,1,DWELLING UNIT(S)-SPACE FUNCTION ZN,Zone Air Temperature [C] !Hourly
9213,7,DWELLING UNIT(S)-SPACE FUNCTION ZN,Zone Air Relative Humidity [%] !Daily [Value,Min,Hour,Minute,Max,Hour,Minute]
9252,1,ELECTRICAL/MECHANICAL-SCH-A-SPACE FUNCTION ZN,Zone Air Temperature [C] !Hourly
9253,7,ELECTRICAL/MECHANICAL-SCH-A-SPACE FUNCTION ZN,Zone Air Relative Humidity [%] !Daily [Value,Min,Hour,Minute,Max,Hour,Minute]
9292,1,ELECTRICAL/MECHANICAL-SCH-B-SPACE FUNCTION ZN,Zone Air Temperature [C] !Hourly
9293,7,ELECTRICAL/MECHANICAL-SCH-B-SPACE FUNCTION ZN,Zone Air Relative Humidity [%] !Daily [Value,Min,Hour,Minute,Max,Hour,Minute]
9332,1,ELECTRICAL/MECHANICAL-SCH-C-SPACE FUNCTION ZN,Zone Air Temperature [C] !Hourly
9333,7,ELECTRICAL/MECHANICAL-SCH-C-SPACE FUNCTION ZN,Zone Air Relative Humidity [%] !Daily [Value,Min,Hour,Minute,Max,Hour,Minute]
9372,1,ELECTRICAL/MECHANICAL-SCH-D-SPACE FUNCTION ZN,Zone Air Temperature [C] !Hourly
9373,7,ELECTRICAL/MECHANICAL-SCH-D-SPACE FUNCTION ZN,Zone Air Relative Humidity [%] !Daily [Value,Min,Hour,Minute,Max,Hour,Minute]
9412,1,ELECTRICAL/MECHANICAL-SCH-E-SPACE FUNCTION ZN,Zone Air Temperature [C] !Hourly
9413,7,ELECTRICAL/MECHANICAL-SCH-E-SPACE FUNCTION ZN,Zone Air Relative Humidity [%] !Daily [Value,Min,Hour,Minute,Max,Hour,Minute]
9452,1,ELECTRICAL/MECHANICAL-SCH-F-SPACE FUNCTION ZN,Zone Air Temperature [C] !Hourly
9453,7,ELECTRICAL/MECHANICAL-SCH-F-SPACE FUNCTION ZN,Zone Air Relative Humidity [%] !Daily [Value,Min,Hour,Minute,Max,Hour,Minute]
9492,1,ELECTRICAL/MECHANICAL-SCH-G-SPACE FUNCTION ZN,Zone Air Temperature [C] !Hourly
9493,7,ELECTRICAL/MECHANICAL-SCH-G-SPACE FUNCTION ZN,Zone Air Relative Humidity [%] !Daily [Value,Min,Hour,Minute,Max,Hour,Minute]
9532,1,ELECTRICAL/MECHANICAL-SCH-H-SPACE FUNCTION ZN,Zone Air Temperature [C] !Hourly
9533,7,ELECTRICAL/MECHANICAL-SCH-H-SPACE FUNCTION ZN,Zone Air Relative Humidity [%] !Daily [Value,Min,Hour,Minute,Max,Hour,Minute]
9572,1,ELECTRICAL/MECHANICAL-SCH-I-SPACE FUNCTION ZN,Zone Air Temperature [C] !Hourly
9573,7,ELECTRICAL/MECHANICAL-SCH-I-SPACE FUNCTION ZN,Zone Air Relative Humidity [%] !Daily [Value,Min,Hour,Minute,Max,Hour,Minute]
9612,1,FIRE STATION - ENGINE ROOM-SPACE FUNCTION ZN,Zone Air Temperature [C] !Hourly
9613,7,FIRE STATION - ENGINE ROOM-SPACE FUNCTION ZN,Zone Air Relative Humidity [%] !Daily [Value,Min,Hour,Minute,Max,Hour,Minute]
9652,1,FIRE STATION - QUARTERS-SPACE FUNCTION ZN,Zone Air Temperature [C] !Hourly
9653,7,FIRE STATION - QUARTERS-SPACE FUNCTION ZN,Zone Air Relative Humidity [%] !Daily [Value,Min,Hour,Minute,Max,Hour,Minute]
9692,1,FOOD PREPARATION - VENTED-SPACE FUNCTION ZN,Zone Air Temperature [C] !Hourly
9693,7,FOOD PREPARATION - VENTED-SPACE FUNCTION ZN,Zone Air Relative Humidity [%] !Daily [Value,Min,Hour,Minute,Max,Hour,Minute]
9732,1,FOOD PREPARATION-SPACE FUNCTION ZN,Zone Air Temperature [C] !Hourly
9733,7,FOOD PREPARATION-SPACE FUNCTION ZN,Zone Air Relative Humidity [%] !Daily [Value,Min,Hour,Minute,Max,Hour,Minute]
9772,1,GYM - AUDIENCE-SPACE FUNCTION ZN,Zone Air Temperature [C] !Hourly
9773,7,GYM - AUDIENCE-SPACE FUNCTION ZN,Zone Air Relative Humidity [%] !Daily [Value,Min,Hour,Minute,Max,Hour,Minute]
9812,1,GYM - FITNESS-SPACE FUNCTION ZN,Zone Air Temperature [C] !Hourly
9813,7,GYM - FITNESS-SPACE FUNCTION ZN,Zone Air Relative Humidity [%] !Daily [Value,Min,Hour,Minute,Max,Hour,Minute]
9852,1,GYM - PLAY-SPACE FUNCTION ZN,Zone Air Temperature [C] !Hourly
9853,7,GYM - PLAY-SPACE FUNCTION ZN,Zone Air Relative Humidity [%] !Daily [Value,Min,Hour,Minute,Max,Hour,Minute]
9892,1,HOSPITAL - EMERGENCY-SPACE FUNCTION ZN,Zone Air Temperature [C] !Hourly
9893,7,HOSPITAL - EMERGENCY-SPACE FUNCTION ZN,Zone Air Relative Humidity [%] !Daily [Value,Min,Hour,Minute,Max,Hour,Minute]
9932,1,HOSPITAL - EXAM-SPACE FUNCTION ZN,Zone Air Temperature [C] !Hourly
9933,7,HOSPITAL - EXAM-SPACE FUNCTION ZN,Zone Air Relative Humidity [%] !Daily [Value,Min,Hour,Minute,Max,Hour,Minute]
9972,1,HOSPITAL - LAUNDRY/WASHING-SPACE FUNCTION ZN,Zone Air Temperature [C] !Hourly
9973,7,HOSPITAL - LAUNDRY/WASHING-SPACE FUNCTION ZN,Zone Air Relative Humidity [%] !Daily [Value,Min,Hour,Minute,Max,Hour,Minute]
10012,1,HOSPITAL - LOUNGE/RECREATION-SPACE FUNCTION ZN,Zone Air Temperature [C] !Hourly
10013,7,HOSPITAL - LOUNGE/RECREATION-SPACE FUNCTION ZN,Zone Air Relative Humidity [%] !Daily [Value,Min,Hour,Minute,Max,Hour,Minute]
10052,1,HOSPITAL - MEDICAL SUPPLY - OCCSENS-SPACE FUNCTION ZN,Zone Air Temperature [C] !Hourly
10053,7,HOSPITAL - MEDICAL SUPPLY - OCCSENS-SPACE FUNCTION ZN,Zone Air Relative Humidity [%] !Daily [Value,Min,Hour,Minute,Max,Hour,Minute]
10092,1,HOSPITAL - MEDICAL SUPPLY-SPACE FUNCTION ZN,Zone Air Temperature [C] !Hourly
10093,7,HOSPITAL - MEDICAL SUPPLY-SPACE FUNCTION ZN,Zone Air Relative Humidity [%] !Daily [Value,Min,Hour,Minute,Max,Hour,Minute]
10132,1,HOSPITAL - NURSERY-SPACE FUNCTION ZN,Zone Air Temperature [C] !Hourly
10133,7,HOSPITAL - NURSERY-SPACE FUNCTION ZN,Zone Air Relative Humidity [%] !Daily [Value,Min,Hour,Minute,Max,Hour,Minute]
10172,1,HOSPITAL - NURSES' STATION-SPACE FUNCTION ZN,Zone Air Temperature [C] !Hourly
10173,7,HOSPITAL - NURSES' STATION-SPACE FUNCTION ZN,Zone Air Relative Humidity [%] !Daily [Value,Min,Hour,Minute,Max,Hour,Minute]
10212,1,HOSPITAL - OPERATING ROOM-SPACE FUNCTION ZN,Zone Air Temperature [C] !Hourly
10213,7,HOSPITAL - OPERATING ROOM-SPACE FUNCTION ZN,Zone Air Relative Humidity [%] !Daily [Value,Min,Hour,Minute,Max,Hour,Minute]
10252,1,HOSPITAL - PATIENT ROOM-SPACE FUNCTION ZN,Zone Air Temperature [C] !Hourly
10253,7,HOSPITAL - PATIENT ROOM-SPACE FUNCTION ZN,Zone Air Relative Humidity [%] !Daily [Value,Min,Hour,Minute,Max,Hour,Minute]
10292,1,HOSPITAL - PHARMACY-SPACE FUNCTION ZN,Zone Air Temperature [C] !Hourly
10293,7,HOSPITAL - PHARMACY-SPACE FUNCTION ZN,Zone Air Relative Humidity [%] !Daily [Value,Min,Hour,Minute,Max,Hour,Minute]
10332,1,HOSPITAL - PHYSICAL THERAPY-SPACE FUNCTION ZN,Zone Air Temperature [C] !Hourly
10333,7,HOSPITAL - PHYSICAL THERAPY-SPACE FUNCTION ZN,Zone Air Relative Humidity [%] !Daily [Value,Min,Hour,Minute,Max,Hour,Minute]
10372,1,HOSPITAL - RADIOLOGY/IMAGING-SPACE FUNCTION ZN,Zone Air Temperature [C] !Hourly
10373,7,HOSPITAL - RADIOLOGY/IMAGING-SPACE FUNCTION ZN,Zone Air Relative Humidity [%] !Daily [Value,Min,Hour,Minute,Max,Hour,Minute]
10412,1,HOSPITAL - RECOVERY-SPACE FUNCTION ZN,Zone Air Temperature [C] !Hourly
10413,7,HOSPITAL - RECOVERY-SPACE FUNCTION ZN,Zone Air Relative Humidity [%] !Daily [Value,Min,Hour,Minute,Max,Hour,Minute]
10452,1,HOSPITAL CORR. < 2.4M-SCH-A-SPACE FUNCTION ZN,Zone Air Temperature [C] !Hourly
10453,7,HOSPITAL CORR. < 2.4M-SCH-A-SPACE FUNCTION ZN,Zone Air Relative Humidity [%] !Daily [Value,Min,Hour,Minute,Max,Hour,Minute]
10492,1,HOSPITAL CORR. < 2.4M-SCH-B-SPACE FUNCTION ZN,Zone Air Temperature [C] !Hourly
10493,7,HOSPITAL CORR. < 2.4M-SCH-B-SPACE FUNCTION ZN,Zone Air Relative Humidity [%] !Daily [Value,Min,Hour,Minute,Max,Hour,Minute]
10532,1,HOSPITAL CORR. < 2.4M-SCH-C-SPACE FUNCTION ZN,Zone Air Temperature [C] !Hourly
10533,7,HOSPITAL CORR. < 2.4M-SCH-C-SPACE FUNCTION ZN,Zone Air Relative Humidity [%] !Daily [Value,Min,Hour,Minute,Max,Hour,Minute]
10572,1,HOSPITAL CORR. < 2.4M-SCH-D-SPACE FUNCTION ZN,Zone Air Temperature [C] !Hourly
10573,7,HOSPITAL CORR. < 2.4M-SCH-D-SPACE FUNCTION ZN,Zone Air Relative Humidity [%] !Daily [Value,Min,Hour,Minute,Max,Hour,Minute]
10612,1,HOSPITAL CORR. < 2.4M-SCH-E-SPACE FUNCTION ZN,Zone Air Temperature [C] !Hourly
10613,7,HOSPITAL CORR. < 2.4M-SCH-E-SPACE FUNCTION ZN,Zone Air Relative Humidity [%] !Daily [Value,Min,Hour,Minute,Max,Hour,Minute]
10652,1,HOSPITAL CORR. < 2.4M-SCH-F-SPACE FUNCTION ZN,Zone Air Temperature [C] !Hourly
10653,7,HOSPITAL CORR. < 2.4M-SCH-F-SPACE FUNCTION ZN,Zone Air Relative Humidity [%] !Daily [Value,Min,Hour,Minute,Max,Hour,Minute]
10692,1,HOSPITAL CORR. < 2.4M-SCH-G-SPACE FUNCTION ZN,Zone Air Temperature [C] !Hourly
10693,7,HOSPITAL CORR. < 2.4M-SCH-G-SPACE FUNCTION ZN,Zone Air Relative Humidity [%] !Daily [Value,Min,Hour,Minute,Max,Hour,Minute]
10732,1,HOSPITAL CORR. < 2.4M-SCH-H-SPACE FUNCTION ZN,Zone Air Temperature [C] !Hourly
10733,7,HOSPITAL CORR. < 2.4M-SCH-H-SPACE FUNCTION ZN,Zone Air Relative Humidity [%] !Daily [Value,Min,Hour,Minute,Max,Hour,Minute]
10772,1,HOSPITAL CORR. < 2.4M-SCH-I-SPACE FUNCTION ZN,Zone Air Temperature [C] !Hourly
10773,7,HOSPITAL CORR. < 2.4M-SCH-I-SPACE FUNCTION ZN,Zone Air Relative Humidity [%] !Daily [Value,Min,Hour,Minute,Max,Hour,Minute]
10812,1,HOSPITAL CORR. >= 2.4M-SCH-A-SPACE FUNCTION ZN,Zone Air Temperature [C] !Hourly
10813,7,HOSPITAL CORR. >= 2.4M-SCH-A-SPACE FUNCTION ZN,Zone Air Relative Humidity [%] !Daily [Value,Min,Hour,Minute,Max,Hour,Minute]
10852,1,HOSPITAL CORR. >= 2.4M-SCH-B-SPACE FUNCTION ZN,Zone Air Temperature [C] !Hourly
10853,7,HOSPITAL CORR. >= 2.4M-SCH-B-SPACE FUNCTION ZN,Zone Air Relative Humidity [%] !Daily [Value,Min,Hour,Minute,Max,Hour,Minute]
10892,1,HOSPITAL CORR. >= 2.4M-SCH-C-SPACE FUNCTION ZN,Zone Air Temperature [C] !Hourly
10893,7,HOSPITAL CORR. >= 2.4M-SCH-C-SPACE FUNCTION ZN,Zone Air Relative Humidity [%] !Daily [Value,Min,Hour,Minute,Max,Hour,Minute]
10932,1,HOSPITAL CORR. >= 2.4M-SCH-D-SPACE FUNCTION ZN,Zone Air Temperature [C] !Hourly
10933,7,HOSPITAL CORR. >= 2.4M-SCH-D-SPACE FUNCTION ZN,Zone Air Relative Humidity [%] !Daily [Value,Min,Hour,Minute,Max,Hour,Minute]
10972,1,HOSPITAL CORR. >= 2.4M-SCH-E-SPACE FUNCTION ZN,Zone Air Temperature [C] !Hourly
10973,7,HOSPITAL CORR. >= 2.4M-SCH-E-SPACE FUNCTION ZN,Zone Air Relative Humidity [%] !Daily [Value,Min,Hour,Minute,Max,Hour,Minute]
11012,1,HOSPITAL CORR. >= 2.4M-SCH-F-SPACE FUNCTION ZN,Zone Air Temperature [C] !Hourly
11013,7,HOSPITAL CORR. >= 2.4M-SCH-F-SPACE FUNCTION ZN,Zone Air Relative Humidity [%] !Daily [Value,Min,Hour,Minute,Max,Hour,Minute]
11052,1,HOSPITAL CORR. >= 2.4M-SCH-G-SPACE FUNCTION ZN,Zone Air Temperature [C] !Hourly
11053,7,HOSPITAL CORR. >= 2.4M-SCH-G-SPACE FUNCTION ZN,Zone Air Relative Humidity [%] !Daily [Value,Min,Hour,Minute,Max,Hour,Minute]
11092,1,HOSPITAL CORR. >= 2.4M-SCH-H-SPACE FUNCTION ZN,Zone Air Temperature [C] !Hourly
11093,7,HOSPITAL CORR. >= 2.4M-SCH-H-SPACE FUNCTION ZN,Zone Air Relative Humidity [%] !Daily [Value,Min,Hour,Minute,Max,Hour,Minute]
11132,1,HOSPITAL CORR. >= 2.4M-SCH-I-SPACE FUNCTION ZN,Zone Air Temperature [C] !Hourly
11133,7,HOSPITAL CORR. >= 2.4M-SCH-I-SPACE FUNCTION ZN,Zone Air Relative Humidity [%] !Daily [Value,Min,Hour,Minute,Max,Hour,Minute]
11172,1,HOTEL/MOTEL - DINING-SPACE FUNCTION ZN,Zone Air Temperature [C] !Hourly
11173,7,HOTEL/MOTEL - DINING-SPACE FUNCTION ZN,Zone Air Relative Humidity [%] !Daily [Value,Min,Hour,Minute,Max,Hour,Minute]
11212,1,HOTEL/MOTEL - LOBBY-SPACE FUNCTION ZN,Zone Air Temperature [C] !Hourly
11213,7,HOTEL/MOTEL - LOBBY-SPACE FUNCTION ZN,Zone Air Relative Humidity [%] !Daily [Value,Min,Hour,Minute,Max,Hour,Minute]
11252,1,HOTEL/MOTEL - ROOMS-SPACE FUNCTION ZN,Zone Air Temperature [C] !Hourly
11253,7,HOTEL/MOTEL - ROOMS-SPACE FUNCTION ZN,Zone Air Relative Humidity [%] !Daily [Value,Min,Hour,Minute,Max,Hour,Minute]
11292,1,HWAY LODGING - DINING-SPACE FUNCTION ZN,Zone Air Temperature [C] !Hourly
11293,7,HWAY LODGING - DINING-SPACE FUNCTION ZN,Zone Air Relative Humidity [%] !Daily [Value,Min,Hour,Minute,Max,Hour,Minute]
11332,1,HWAY LODGING - ROOMS-SPACE FUNCTION ZN,Zone Air Temperature [C] !Hourly
11333,7,HWAY LODGING - ROOMS-SPACE FUNCTION ZN,Zone Air Relative Humidity [%] !Daily [Value,Min,Hour,Minute,Max,Hour,Minute]
11372,1,LAB - CLASSROOMS-SPACE FUNCTION ZN,Zone Air Temperature [C] !Hourly
11373,7,LAB - CLASSROOMS-SPACE FUNCTION ZN,Zone Air Relative Humidity [%] !Daily [Value,Min,Hour,Minute,Max,Hour,Minute]
11412,1,LAB - RESEARCH-SPACE FUNCTION ZN,Zone Air Temperature [C] !Hourly
11413,7,LAB - RESEARCH-SPACE FUNCTION ZN,Zone Air Relative Humidity [%] !Daily [Value,Min,Hour,Minute,Max,Hour,Minute]
11452,1,LIBRARY - CATALOGING-SPACE FUNCTION ZN,Zone Air Temperature [C] !Hourly
11453,7,LIBRARY - CATALOGING-SPACE FUNCTION ZN,Zone Air Relative Humidity [%] !Daily [Value,Min,Hour,Minute,Max,Hour,Minute]
11492,1,LIBRARY - READING-SPACE FUNCTION ZN,Zone Air Temperature [C] !Hourly
11493,7,LIBRARY - READING-SPACE FUNCTION ZN,Zone Air Relative Humidity [%] !Daily [Value,Min,Hour,Minute,Max,Hour,Minute]
11532,1,LIBRARY - STACKS-SPACE FUNCTION ZN,Zone Air Temperature [C] !Hourly
11533,7,LIBRARY - STACKS-SPACE FUNCTION ZN,Zone Air Relative Humidity [%] !Daily [Value,Min,Hour,Minute,Max,Hour,Minute]
11572,1,LOBBY - ELEVATOR-SPACE FUNCTION ZN,Zone Air Temperature [C] !Hourly
11573,7,LOBBY - ELEVATOR-SPACE FUNCTION ZN,Zone Air Relative Humidity [%] !Daily [Value,Min,Hour,Minute,Max,Hour,Minute]
11612,1,LOBBY - MOTION PICTURE-SPACE FUNCTION ZN,Zone Air Temperature [C] !Hourly
11613,7,LOBBY - MOTION PICTURE-SPACE FUNCTION ZN,Zone Air Relative Humidity [%] !Daily [Value,Min,Hour,Minute,Max,Hour,Minute]
11652,1,LOBBY - OTHER-SPACE FUNCTION ZN,Zone Air Temperature [C] !Hourly
11653,7,LOBBY - OTHER-SPACE FUNCTION ZN,Zone Air Relative Humidity [%] !Daily [Value,Min,Hour,Minute,Max,Hour,Minute]
11692,1,LOBBY - PERFORMANCE ARTS-SPACE FUNCTION ZN,Zone Air Temperature [C] !Hourly
11693,7,LOBBY - PERFORMANCE ARTS-SPACE FUNCTION ZN,Zone Air Relative Humidity [%] !Daily [Value,Min,Hour,Minute,Max,Hour,Minute]
11732,1,LOCKER ROOM-SCH-A-SPACE FUNCTION ZN,Zone Air Temperature [C] !Hourly
11733,7,LOCKER ROOM-SCH-A-SPACE FUNCTION ZN,Zone Air Relative Humidity [%] !Daily [Value,Min,Hour,Minute,Max,Hour,Minute]
11772,1,LOCKER ROOM-SCH-B-SPACE FUNCTION ZN,Zone Air Temperature [C] !Hourly
11773,7,LOCKER ROOM-SCH-B-SPACE FUNCTION ZN,Zone Air Relative Humidity [%] !Daily [Value,Min,Hour,Minute,Max,Hour,Minute]
11812,1,LOCKER ROOM-SCH-C-SPACE FUNCTION ZN,Zone Air Temperature [C] !Hourly
11813,7,LOCKER ROOM-SCH-C-SPACE FUNCTION ZN,Zone Air Relative Humidity [%] !Daily [Value,Min,Hour,Minute,Max,Hour,Minute]
11852,1,LOCKER ROOM-SCH-D-SPACE FUNCTION ZN,Zone Air Temperature [C] !Hourly
11853,7,LOCKER ROOM-SCH-D-SPACE FUNCTION ZN,Zone Air Relative Humidity [%] !Daily [Value,Min,Hour,Minute,Max,Hour,Minute]
11892,1,LOCKER ROOM-SCH-E-SPACE FUNCTION ZN,Zone Air Temperature [C] !Hourly
11893,7,LOCKER ROOM-SCH-E-SPACE FUNCTION ZN,Zone Air Relative Humidity [%] !Daily [Value,Min,Hour,Minute,Max,Hour,Minute]
11932,1,LOCKER ROOM-SCH-F-SPACE FUNCTION ZN,Zone Air Temperature [C] !Hourly
11933,7,LOCKER ROOM-SCH-F-SPACE FUNCTION ZN,Zone Air Relative Humidity [%] !Daily [Value,Min,Hour,Minute,Max,Hour,Minute]
11972,1,LOCKER ROOM-SCH-G-SPACE FUNCTION ZN,Zone Air Temperature [C] !Hourly
11973,7,LOCKER ROOM-SCH-G-SPACE FUNCTION ZN,Zone Air Relative Humidity [%] !Daily [Value,Min,Hour,Minute,Max,Hour,Minute]
12012,1,LOCKER ROOM-SCH-H-SPACE FUNCTION ZN,Zone Air Temperature [C] !Hourly
12013,7,LOCKER ROOM-SCH-H-SPACE FUNCTION ZN,Zone Air Relative Humidity [%] !Daily [Value,Min,Hour,Minute,Max,Hour,Minute]
12052,1,LOCKER ROOM-SCH-I-SPACE FUNCTION ZN,Zone Air Temperature [C] !Hourly
12053,7,LOCKER ROOM-SCH-I-SPACE FUNCTION ZN,Zone Air Relative Humidity [%] !Daily [Value,Min,Hour,Minute,Max,Hour,Minute]
12092,1,LOUNGE/RECREATION-SPACE FUNCTION ZN,Zone Air Temperature [C] !Hourly
12093,7,LOUNGE/RECREATION-SPACE FUNCTION ZN,Zone Air Relative Humidity [%] !Daily [Value,Min,Hour,Minute,Max,Hour,Minute]
12132,1,MFG - 7.5 <= BAY H <= 15M-SPACE FUNCTION ZN,Zone Air Temperature [C] !Hourly
12133,7,MFG - 7.5 <= BAY H <= 15M-SPACE FUNCTION ZN,Zone Air Relative Humidity [%] !Daily [Value,Min,Hour,Minute,Max,Hour,Minute]
12172,1,MFG - BAY H < 7.5M-SPACE FUNCTION ZN,Zone Air Temperature [C] !Hourly
12173,7,MFG - BAY H < 7.5M-SPACE FUNCTION ZN,Zone Air Relative Humidity [%] !Daily [Value,Min,Hour,Minute,Max,Hour,Minute]
12212,1,MFG - BAY H > 15M-SPACE FUNCTION ZN,Zone Air Temperature [C] !Hourly
12213,7,MFG - BAY H > 15M-SPACE FUNCTION ZN,Zone Air Relative Humidity [%] !Daily [Value,Min,Hour,Minute,Max,Hour,Minute]
12252,1,MFG - CORR. < 2.4M-SCH-A-SPACE FUNCTION ZN,Zone Air Temperature [C] !Hourly
12253,7,MFG - CORR. < 2.4M-SCH-A-SPACE FUNCTION ZN,Zone Air Relative Humidity [%] !Daily [Value,Min,Hour,Minute,Max,Hour,Minute]
12292,1,MFG - CORR. < 2.4M-SCH-B-SPACE FUNCTION ZN,Zone Air Temperature [C] !Hourly
12293,7,MFG - CORR. < 2.4M-SCH-B-SPACE FUNCTION ZN,Zone Air Relative Humidity [%] !Daily [Value,Min,Hour,Minute,Max,Hour,Minute]
12332,1,MFG - CORR. < 2.4M-SCH-C-SPACE FUNCTION ZN,Zone Air Temperature [C] !Hourly
12333,7,MFG - CORR. < 2.4M-SCH-C-SPACE FUNCTION ZN,Zone Air Relative Humidity [%] !Daily [Value,Min,Hour,Minute,Max,Hour,Minute]
12372,1,MFG - CORR. < 2.4M-SCH-D-SPACE FUNCTION ZN,Zone Air Temperature [C] !Hourly
12373,7,MFG - CORR. < 2.4M-SCH-D-SPACE FUNCTION ZN,Zone Air Relative Humidity [%] !Daily [Value,Min,Hour,Minute,Max,Hour,Minute]
12412,1,MFG - CORR. < 2.4M-SCH-E-SPACE FUNCTION ZN,Zone Air Temperature [C] !Hourly
12413,7,MFG - CORR. < 2.4M-SCH-E-SPACE FUNCTION ZN,Zone Air Relative Humidity [%] !Daily [Value,Min,Hour,Minute,Max,Hour,Minute]
12452,1,MFG - CORR. < 2.4M-SCH-F-SPACE FUNCTION ZN,Zone Air Temperature [C] !Hourly
12453,7,MFG - CORR. < 2.4M-SCH-F-SPACE FUNCTION ZN,Zone Air Relative Humidity [%] !Daily [Value,Min,Hour,Minute,Max,Hour,Minute]
12492,1,MFG - CORR. < 2.4M-SCH-G-SPACE FUNCTION ZN,Zone Air Temperature [C] !Hourly
12493,7,MFG - CORR. < 2.4M-SCH-G-SPACE FUNCTION ZN,Zone Air Relative Humidity [%] !Daily [Value,Min,Hour,Minute,Max,Hour,Minute]
12532,1,MFG - CORR. < 2.4M-SCH-H-SPACE FUNCTION ZN,Zone Air Temperature [C] !Hourly
12533,7,MFG - CORR. < 2.4M-SCH-H-SPACE FUNCTION ZN,Zone Air Relative Humidity [%] !Daily [Value,Min,Hour,Minute,Max,Hour,Minute]
12572,1,MFG - CORR. < 2.4M-SCH-I-SPACE FUNCTION ZN,Zone Air Temperature [C] !Hourly
12573,7,MFG - CORR. < 2.4M-SCH-I-SPACE FUNCTION ZN,Zone Air Relative Humidity [%] !Daily [Value,Min,Hour,Minute,Max,Hour,Minute]
12612,1,MFG - CORR. >= 2.4M-SCH-A-SPACE FUNCTION ZN,Zone Air Temperature [C] !Hourly
12613,7,MFG - CORR. >= 2.4M-SCH-A-SPACE FUNCTION ZN,Zone Air Relative Humidity [%] !Daily [Value,Min,Hour,Minute,Max,Hour,Minute]
12652,1,MFG - CORR. >= 2.4M-SCH-B-SPACE FUNCTION ZN,Zone Air Temperature [C] !Hourly
12653,7,MFG - CORR. >= 2.4M-SCH-B-SPACE FUNCTION ZN,Zone Air Relative Humidity [%] !Daily [Value,Min,Hour,Minute,Max,Hour,Minute]
12692,1,MFG - CORR. >= 2.4M-SCH-C-SPACE FUNCTION ZN,Zone Air Temperature [C] !Hourly
12693,7,MFG - CORR. >= 2.4M-SCH-C-SPACE FUNCTION ZN,Zone Air Relative Humidity [%] !Daily [Value,Min,Hour,Minute,Max,Hour,Minute]
12732,1,MFG - CORR. >= 2.4M-SCH-D-SPACE FUNCTION ZN,Zone Air Temperature [C] !Hourly
12733,7,MFG - CORR. >= 2.4M-SCH-D-SPACE FUNCTION ZN,Zone Air Relative Humidity [%] !Daily [Value,Min,Hour,Minute,Max,Hour,Minute]
12772,1,MFG - CORR. >= 2.4M-SCH-E-SPACE FUNCTION ZN,Zone Air Temperature [C] !Hourly
12773,7,MFG - CORR. >= 2.4M-SCH-E-SPACE FUNCTION ZN,Zone Air Relative Humidity [%] !Daily [Value,Min,Hour,Minute,Max,Hour,Minute]
12812,1,MFG - CORR. >= 2.4M-SCH-F-SPACE FUNCTION ZN,Zone Air Temperature [C] !Hourly
12813,7,MFG - CORR. >= 2.4M-SCH-F-SPACE FUNCTION ZN,Zone Air Relative Humidity [%] !Daily [Value,Min,Hour,Minute,Max,Hour,Minute]
12852,1,MFG - CORR. >= 2.4M-SCH-G-SPACE FUNCTION ZN,Zone Air Temperature [C] !Hourly
12853,7,MFG - CORR. >= 2.4M-SCH-G-SPACE FUNCTION ZN,Zone Air Relative Humidity [%] !Daily [Value,Min,Hour,Minute,Max,Hour,Minute]
12892,1,MFG - CORR. >= 2.4M-SCH-H-SPACE FUNCTION ZN,Zone Air Temperature [C] !Hourly
12893,7,MFG - CORR. >= 2.4M-SCH-H-SPACE FUNCTION ZN,Zone Air Relative Humidity [%] !Daily [Value,Min,Hour,Minute,Max,Hour,Minute]
12932,1,MFG - CORR. >= 2.4M-SCH-I-SPACE FUNCTION ZN,Zone Air Temperature [C] !Hourly
12933,7,MFG - CORR. >= 2.4M-SCH-I-SPACE FUNCTION ZN,Zone Air Relative Humidity [%] !Daily [Value,Min,Hour,Minute,Max,Hour,Minute]
12972,1,MFG - DETAILED-SPACE FUNCTION ZN,Zone Air Temperature [C] !Hourly
12973,7,MFG - DETAILED-SPACE FUNCTION ZN,Zone Air Relative Humidity [%] !Daily [Value,Min,Hour,Minute,Max,Hour,Minute]
13012,1,MFG - EQUIPMENT-SPACE FUNCTION ZN,Zone Air Temperature [C] !Hourly
13013,7,MFG - EQUIPMENT-SPACE FUNCTION ZN,Zone Air Relative Humidity [%] !Daily [Value,Min,Hour,Minute,Max,Hour,Minute]
13052,1,MUSEUM - EXHIBITION-SPACE FUNCTION ZN,Zone Air Temperature [C] !Hourly
13053,7,MUSEUM - EXHIBITION-SPACE FUNCTION ZN,Zone Air Relative Humidity [%] !Daily [Value,Min,Hour,Minute,Max,Hour,Minute]
13092,1,MUSEUM - RESTORATION-SPACE FUNCTION ZN,Zone Air Temperature [C] !Hourly
13093,7,MUSEUM - RESTORATION-SPACE FUNCTION ZN,Zone Air Relative Humidity [%] !Daily [Value,Min,Hour,Minute,Max,Hour,Minute]
13132,1,OFFICE - ENCLOSED - OCCSENS-SPACE FUNCTION ZN,Zone Air Temperature [C] !Hourly
13133,7,OFFICE - ENCLOSED - OCCSENS-SPACE FUNCTION ZN,Zone Air Relative Humidity [%] !Daily [Value,Min,Hour,Minute,Max,Hour,Minute]
13172,1,OFFICE - ENCLOSED-SPACE FUNCTION ZN,Zone Air Temperature [C] !Hourly
13173,7,OFFICE - ENCLOSED-SPACE FUNCTION ZN,Zone Air Relative Humidity [%] !Daily [Value,Min,Hour,Minute,Max,Hour,Minute]
13212,1,OFFICE - OPEN PLAN-SPACE FUNCTION ZN,Zone Air Temperature [C] !Hourly
13213,7,OFFICE - OPEN PLAN-SPACE FUNCTION ZN,Zone Air Relative Humidity [%] !Daily [Value,Min,Hour,Minute,Max,Hour,Minute]