Program Version,EnergyPlus, Version 8.9.0-eba93e8e1b, YMD=2019.03.05 20:40
1,5,Environment Title[],Latitude[deg],Longitude[deg],Time Zone[],Elevation[m]
2,8,Day of Simulation[],Month[],Day of Month[],DST Indicator[1=yes 0=no],Hour[],StartMinute[],EndMinute[],DayType
3,5,Cumulative Day of Simulation[],Month[],Day of Month[],DST Indicator[1=yes 0=no],DayType  ! When Daily Report Variables Requested
4,2,Cumulative Days of Simulation[],Month[]  ! When Monthly Report Variables Requested
5,1,Cumulative Days of Simulation[] ! When Run Period Report Variables Requested
6,1,Calendar Year of Simulation[] ! When Annual Report Variables Requested
7,9,Environment,Site Outdoor Air Drybulb Temperature [C] !Monthly [Value,Min,Day,Hour,Minute,Max,Day,Hour,Minute]
8,1,Environment,Site Outdoor Air Wetbulb Temperature [C] !TimeStep
547,1,WHOLEBUILDING-AUTOMOTIVE FACILITY ZN,Zone Air Temperature [C] !Hourly
548,7,WHOLEBUILDING-AUTOMOTIVE FACILITY ZN,Zone Air Relative Humidity [%] !Daily [Value,Min,Hour,Minute,Max,Hour,Minute]
587,1,WHOLEBUILDING-CONVENTION CENTRE ZN,Zone Air Temperature [C] !Hourly
588,7,WHOLEBUILDING-CONVENTION CENTRE ZN,Zone Air Relative Humidity [%] !Daily [Value,Min,Hour,Minute,Max,Hour,Minute]
627,1,WHOLEBUILDING-COURTHOUSE ZN,Zone Air Temperature [C] !Hourly
628,7,WHOLEBUILDING-COURTHOUSE ZN,Zone Air Relative Humidity [%] !Daily [Value,Min,Hour,Minute,Max,Hour,Minute]
667,1,WHOLEBUILDING-DINING - BAR/LOUNGE ZN,Zone Air Temperature [C] !Hourly
668,7,WHOLEBUILDING-DINING - BAR/LOUNGE ZN,Zone Air Relative Humidity [%] !Daily [Value,Min,Hour,Minute,Max,Hour,Minute]
707,1,WHOLEBUILDING-DINING - CAFETERIA ZN,Zone Air Temperature [C] !Hourly
708,7,WHOLEBUILDING-DINING - CAFETERIA ZN,Zone Air Relative Humidity [%] !Daily [Value,Min,Hour,Minute,Max,Hour,Minute]
747,1,WHOLEBUILDING-DINING - FAMILY ZN,Zone Air Temperature [C] !Hourly
748,7,WHOLEBUILDING-DINING - FAMILY ZN,Zone Air Relative Humidity [%] !Daily [Value,Min,Hour,Minute,Max,Hour,Minute]
787,1,WHOLEBUILDING-DORMITORY ZN,Zone Air Temperature [C] !Hourly
788,7,WHOLEBUILDING-DORMITORY ZN,Zone Air Relative Humidity [%] !Daily [Value,Min,Hour,Minute,Max,Hour,Minute]
827,1,WHOLEBUILDING-EXERCISE CENTRE ZN,Zone Air Temperature [C] !Hourly
828,7,WHOLEBUILDING-EXERCISE CENTRE ZN,Zone Air Relative Humidity [%] !Daily [Value,Min,Hour,Minute,Max,Hour,Minute]
867,1,WHOLEBUILDING-FIRE STATION ZN,Zone Air Temperature [C] !Hourly
868,7,WHOLEBUILDING-FIRE STATION ZN,Zone Air Relative Humidity [%] !Daily [Value,Min,Hour,Minute,Max,Hour,Minute]
907,1,WHOLEBUILDING-GYMNASIUM ZN,Zone Air Temperature [C] !Hourly
908,7,WHOLEBUILDING-GYMNASIUM ZN,Zone Air Relative Humidity [%] !Daily [Value,Min,Hour,Minute,Max,Hour,Minute]
10,1,Electricity:Facility [J] !TimeStep
1058,1,DistrictCooling:Facility [J] !TimeStep
1021,1,DistrictHeating:Facility [J] !TimeStep
End of Data Dictionary
1,FORT MCMURRAY AP ANN CLG .4% CONDNS DB=>MWB,  56.65,-111.22,  -7.00, 369.10
2,1, 7,21, 0, 1, 0.00,10.00,SummerDesignDay
8,14.218136923962174
10,70773160.99942744
1021,0.0
1058,28533321.012766426
2,1, 7,21, 0, 1,10.00,20.00,SummerDesignDay
8,14.171982153293495
10,70773160.99942744
1021,0.0
1058,25307394.105990516
2,1, 7,21, 0, 1,20.00,30.00,SummerDesignDay
8,14.125744780286427
10,70773160.99942744
1021,0.0
1058,22998914.416479693
2,1, 7,21, 0, 1,30.00,40.00,SummerDesignDay
8,14.079436086331978
10,70773160.99942744
1021,0.0
1058,20697526.64360013
2,1, 7,21, 0, 1,40.00,50.00,SummerDesignDay
8,14.033050387896898
10,70773160.99942744
1021,0.0
1058,18421209.765739949
2,1, 7,21, 0, 1,50.00,60.00,SummerDesignDay
8,13.986581233564835
10,70773160.99942744
1021,0.0
1058,16161101.731658295
2,1, 7,21, 0, 1, 0.00,60.00,SummerDesignDay
547,22.313971054364328
587,22.626251139084329
627,23.77724324236392
667,24.0
707,24.000000000000015
747,24.000000000000015
787,24.000000000000005
827,23.94638776538851
867,24.00000000000001
907,24.0
2,1, 7,21, 0, 2, 0.00,10.00,SummerDesignDay
8,13.95555882260429
10,39652169.999698039
1021,0.0
1058,869026.1184934463
2,1, 7,21, 0, 2,10.00,20.00,SummerDesignDay
8,13.924507755336454
10,39652169.999698039
1021,0.0
1058,566971.8120651654
2,1, 7,21, 0, 2,20.00,30.00,SummerDesignDay
8,13.893416042989206
10,39652169.999698039
1021,0.0
1058,302068.3876750021
2,1, 7,21, 0, 2,30.00,40.00,SummerDesignDay
8,13.862289589689029
10,39652169.999698039
1021,0.0
1058,39330.502872118705
2,1, 7,21, 0, 2,40.00,50.00,SummerDesignDay
8,13.831134407608739
10,39652169.999698039
1021,0.0
1058,0.0
2,1, 7,21, 0, 2,50.00,60.00,SummerDesignDay
8,13.799938415548118
10,39652169.999698039
1021,0.0
1058,0.0
2,1, 7,21, 0, 2, 0.00,60.00,SummerDesignDay
547,21.913620853497436
587,22.26033786295926
627,23.42527248756686
667,23.642841604499464
707,23.598854020467458
747,23.722957145229644
787,23.867895701402774
827,23.091106798315026
867,23.994128595354188
907,23.874359259997985
2,1, 7,21, 0, 3, 0.00,10.00,SummerDesignDay
8,13.776521671948676
10,13012391.705037313
1021,0.0
1058,0.0
2,1, 7,21, 0, 3,10.00,20.00,SummerDesignDay
8,13.753085235778466
10,13012391.705037313
1021,0.0
1058,0.0
2,1, 7,21, 0, 3,20.00,30.00,SummerDesignDay
8,13.729636002354969
10,13012391.705037313
1021,0.0
1058,0.0
2,1, 7,21, 0, 3,30.00,40.00,SummerDesignDay
8,13.706147375533054
10,13012391.705037313
1021,0.0
1058,0.0
2,1, 7,21, 0, 3,40.00,50.00,SummerDesignDay
8,13.682651961920304
10,13012391.705037313
1021,0.0
1058,0.0
2,1, 7,21, 0, 3,50.00,60.00,SummerDesignDay
8,13.659136670643687
10,13012391.705037313
1021,0.0
1058,0.0
2,1, 7,21, 0, 3, 0.00,60.00,SummerDesignDay
547,21.564823867584847
587,21.941367957679238
627,23.121854073532064
667,22.90254126281684
707,22.834606657870585
747,23.02580810840746
787,23.59321867150528
827,21.988264179093635
867,23.85994258193378
907,23.181385589696615
2,1, 7,21, 0, 4, 0.00,10.00,SummerDesignDay
8,13.63560137410855
10,11876151.161267162
1021,0.0
1058,0.0
2,1, 7,21, 0, 4,10.00,20.00,SummerDesignDay
8,13.612040802606578
10,11876151.161267162
1021,0.0
1058,0.0
2,1, 7,21, 0, 4,20.00,30.00,SummerDesignDay
8,13.58846620506876
10,11876151.161267162
1021,0.0
1058,0.0
2,1, 7,21, 0, 4,30.00,40.00,SummerDesignDay
8,13.56487178447336
10,11876151.161267162
1021,0.0
1058,0.0
2,1, 7,21, 0, 4,40.00,50.00,SummerDesignDay
8,13.541257354069103
10,11876151.161267162
1021,0.0
1058,0.0
2,1, 7,21, 0, 4,50.00,60.00,SummerDesignDay
8,13.517617463812285
10,11876151.161267162
1021,0.0
1058,0.0
2,1, 7,21, 0, 4, 0.00,60.00,SummerDesignDay
547,21.229204864610588
587,21.65185450107602
627,22.827392918438009
667,22.483056774918976
707,22.38838232498378
747,22.591263065713119
787,23.31977560079157
827,21.352951678055349
867,23.556978514501627
907,22.74420527820341
2,1, 7,21, 0, 5, 0.00,10.00,SummerDesignDay
8,13.50185415824011
10,11876151.161267162
1021,0.0
1058,0.0
2,1, 7,21, 0, 5,10.00,20.00,SummerDesignDay
8,13.486076034032447
10,11876151.161267162
1021,0.0
1058,0.0
2,1, 7,21, 0, 5,20.00,30.00,SummerDesignDay
8,13.470289340350983
10,11876151.161267162
1021,0.0
1058,0.0
2,1, 7,21, 0, 5,30.00,40.00,SummerDesignDay
8,13.454493322631063
10,11876151.161267162
1021,0.0
1058,0.0
2,1, 7,21, 0, 5,40.00,50.00,SummerDesignDay
8,13.438688835118548
10,11876151.161267162
1021,0.0
1058,0.0
2,1, 7,21, 0, 5,50.00,60.00,SummerDesignDay
8,13.422888173889437
10,11876151.161267162
1021,0.0
1058,0.0
2,1, 7,21, 0, 5, 0.00,60.00,SummerDesignDay
547,20.977997811584243
587,21.58054560252769
627,22.604374175234495
667,22.216439485947459
707,22.090989663306428
747,22.28712599105195
787,23.107480266871617
827,21.248329858019785
867,23.308329122156903
907,22.4583763017617
2,1, 7,21, 0, 6, 0.00,10.00,SummerDesignDay
8,13.438688835118548
10,11876151.161267162
1021,0.0
1058,0.0
2,1, 7,21, 0, 6,10.00,20.00,SummerDesignDay
8,13.454493322631063
10,11876151.161267162
1021,0.0
1058,0.0
2,1, 7,21, 0, 6,20.00,30.00,SummerDesignDay
8,13.470289340350983
10,11876151.161267162
1021,0.0
1058,0.0
2,1, 7,21, 0, 6,30.00,40.00,SummerDesignDay
8,13.486076034032447
10,11876151.161267162
1021,0.0
1058,0.0
2,1, 7,21, 0, 6,40.00,50.00,SummerDesignDay
8,13.50185415824011
10,11876151.161267162
1021,0.0
1058,0.0
2,1, 7,21, 0, 6,50.00,60.00,SummerDesignDay
8,13.517617463812285
10,11876151.161267162
1021,0.0
1058,0.0
2,1, 7,21, 0, 6, 0.00,60.00,SummerDesignDay
547,21.040729602743445
587,21.952185592054616
627,22.67981686665068
667,22.043636423140855
707,21.887594061660349
747,22.09081563149429
787,23.158532356809649
827,22.174503128161004
867,23.16173272525384
907,22.264877856320326
2,1, 7,21, 0, 7, 0.00,10.00,SummerDesignDay
8,13.572736920571789
10,14992375.226566855
1021,0.0
1058,0.0
2,1, 7,21, 0, 7,10.00,20.00,SummerDesignDay
8,13.627748229152554
10,14992375.226566855
1021,0.0
1058,0.0
2,1, 7,21, 0, 7,20.00,30.00,SummerDesignDay
8,13.682651961920304
10,14992375.226566855
1021,0.0
1058,0.0
2,1, 7,21, 0, 7,30.00,40.00,SummerDesignDay
8,13.737448093244995
10,14992375.226566855
1021,0.0
1058,0.0
2,1, 7,21, 0, 7,40.00,50.00,SummerDesignDay
8,13.792137011831216
10,14992375.226566855
1021,0.0
1058,0.0
2,1, 7,21, 0, 7,50.00,60.00,SummerDesignDay
8,13.846719282840333
10,14992375.226566855
1021,0.0
1058,860632.9546074956
2,1, 7,21, 0, 7, 0.00,60.00,SummerDesignDay
547,21.48834123285221
587,22.305317140577828
627,23.086713903982586
667,22.051580890067773
707,21.865412471579558
747,22.118268507892748
787,23.67749914548538
827,23.456536190723957
867,23.245183301310715
907,22.24938947792711
2,1, 7,21, 0, 8, 0.00,10.00,SummerDesignDay
8,13.978831900527043
10,26225406.738977534
1021,0.0
1058,8801139.66594377
2,1, 7,21, 0, 8,10.00,20.00,SummerDesignDay
8,14.110321014287419
10,26225406.738977534
1021,0.0
1058,9433857.155377247
2,1, 7,21, 0, 8,20.00,30.00,SummerDesignDay
8,14.241191509616986
10,26225406.738977534
1021,0.0
1058,15664849.107551564
2,1, 7,21, 0, 8,30.00,40.00,SummerDesignDay
8,14.371447531304272
10,26225406.738977534
1021,0.0
1058,20950226.75089479
2,1, 7,21, 0, 8,40.00,50.00,SummerDesignDay
8,14.501093766564925
10,26225406.738977534
1021,0.0
1058,24101319.721959507
2,1, 7,21, 0, 8,50.00,60.00,SummerDesignDay
8,14.630134792273804
10,26225406.738977534
1021,0.0
1058,27323784.851221738
2,1, 7,21, 0, 8, 0.00,60.00,SummerDesignDay
547,22.47935271036107
587,23.162203774738758
627,23.913528909042168
667,22.33796895298325
707,22.121427956109718
747,22.452095759665366
787,23.999980183408515
827,24.923898198711958
867,23.5584599974315
907,22.506991537102754
2,1, 7,21, 0, 9, 0.00,10.00,SummerDesignDay
8,14.773641492809972
10,49102091.3453155
1021,0.0
1058,89101654.56777196
2,1, 7,21, 0, 9,10.00,20.00,SummerDesignDay
8,14.91640948124148
10,49102091.3453155
1021,0.0
1058,77348706.5885266
2,1, 7,21, 0, 9,20.00,30.00,SummerDesignDay
8,15.05843890714102
10,49102091.3453155
1021,0.0
1058,101298187.49009788
2,1, 7,21, 0, 9,30.00,40.00,SummerDesignDay
8,15.199735893563798
10,49102091.3453155
1021,0.0
1058,106852496.25190917
2,1, 7,21, 0, 9,40.00,50.00,SummerDesignDay
8,15.340306256439395
10,49102091.3453155
1021,0.0
1058,112928124.45826008
2,1, 7,21, 0, 9,50.00,60.00,SummerDesignDay
8,15.48015101768072
10,49102091.3453155
1021,0.0
1058,120921357.82512068
2,1, 7,21, 0, 9, 0.00,60.00,SummerDesignDay
547,23.903157485586246
587,23.996090894571343
627,23.99999999999792
667,22.974282367918815
707,22.731740211254633
747,23.14860836745663
787,23.999999999999998
827,23.978660862308293
867,23.95005739913843
907,23.112294459388225
2,1, 7,21, 0,10, 0.00,10.00,SummerDesignDay
8,15.60467292907716
10,80991825.9460347
1021,0.0
1058,138207987.0194574
2,1, 7,21, 0,10,10.00,20.00,SummerDesignDay
8,15.72862731650033
10,80991825.9460347
1021,0.0
1058,149008183.25179944
2,1, 7,21, 0,10,20.00,30.00,SummerDesignDay
8,15.852017409284228
10,80991825.9460347
1021,0.0
1058,163548919.09474198
2,1, 7,21, 0,10,30.00,40.00,SummerDesignDay
8,15.974848118364367
10,80991825.9460347
1021,0.0
1058,186432192.91184277
2,1, 7,21, 0,10,40.00,50.00,SummerDesignDay
8,16.097123145563505
10,80991825.9460347
1021,0.0
1058,195490099.18836547
2,1, 7,21, 0,10,50.00,60.00,SummerDesignDay
8,16.218846351168599
10,80991825.9460347
1021,0.0
1058,205334127.61843015
2,1, 7,21, 0,10, 0.00,60.00,SummerDesignDay
547,23.999999994848634
587,23.999999999990825
627,23.999999999999998
667,23.9009141092785
707,23.77702592107099
747,23.96193705417468
787,24.000000000000015
827,23.99999999919467
867,23.99999997838613
907,23.943252462022174
2,1, 7,21, 0,11, 0.00,10.00,SummerDesignDay
8,16.325793027093189
10,97416689.25190717
1021,0.0
1058,232148202.82384233
2,1, 7,21, 0,11,10.00,20.00,SummerDesignDay
8,16.432322158488288
10,97416689.25190717
1021,0.0
1058,243057032.63117699
2,1, 7,21, 0,11,20.00,30.00,SummerDesignDay
8,16.538424180249178
10,97416689.25190717
1021,0.0
1058,252824400.82967679
2,1, 7,21, 0,11,30.00,40.00,SummerDesignDay
8,16.644108396469087
10,97416689.25190717
1021,0.0
1058,262334241.11318095
2,1, 7,21, 0,11,40.00,50.00,SummerDesignDay
8,16.749376736593655
10,97416689.25190717
1021,0.0
1058,271060438.1061524
2,1, 7,21, 0,11,50.00,60.00,SummerDesignDay
8,16.854232613237156
10,97416689.25190717
1021,0.0
1058,279217832.5561229
2,1, 7,21, 0,11, 0.00,60.00,SummerDesignDay
547,24.0
587,24.0
627,23.999999999999998
667,23.999999892064264
707,23.999997485949696
747,23.999999995598988
787,24.000000000000019
827,24.000000000000055
867,24.000000000000005
907,23.9999999931364
2,1, 7,21, 0,12, 0.00,10.00,SummerDesignDay
8,16.92390823520069
10,109600337.85546738
1021,0.0
1058,300418896.3648123
2,1, 7,21, 0,12,10.00,20.00,SummerDesignDay
8,16.99340178950456
10,109600337.85546738
1021,0.0
1058,307100865.6751767
2,1, 7,21, 0,12,20.00,30.00,SummerDesignDay
8,17.06272006743463
10,109600337.85546738
1021,0.0
1058,313080061.95255997
2,1, 7,21, 0,12,30.00,40.00,SummerDesignDay
8,17.131853229172639
10,109600337.85546738
1021,0.0
1058,318939261.7682715
2,1, 7,21, 0,12,40.00,50.00,SummerDesignDay
8,17.200807172194087
10,109600337.85546738
1021,0.0
1058,324612883.3126164
2,1, 7,21, 0,12,50.00,60.00,SummerDesignDay
8,17.269582116758607
10,109600337.85546738
1021,0.0
1058,330077271.6363011
2,1, 7,21, 0,12, 0.00,60.00,SummerDesignDay
547,24.000000000000044
587,24.00000000000004
627,24.000000000000044
667,23.99999999999996
707,23.999999999998978
747,23.99999999999999
787,24.0
827,24.000000000000097
867,24.0
907,24.000000000000019
2,1, 7,21, 0,13, 0.00,10.00,SummerDesignDay
8,17.32447360221357
10,108464097.31169723
1021,0.0
1058,347168965.48975679
2,1, 7,21, 0,13,10.00,20.00,SummerDesignDay
8,17.379251291230806
10,108464097.31169723
1021,0.0
1058,352054518.2398703
2,1, 7,21, 0,13,20.00,30.00,SummerDesignDay
8,17.433921312061729
10,108464097.31169723
1021,0.0
1058,356510817.9719958
2,1, 7,21, 0,13,30.00,40.00,SummerDesignDay
8,17.488473222557489
10,108464097.31169723
1021,0.0
1058,360811778.00587716
2,1, 7,21, 0,13,40.00,50.00,SummerDesignDay
8,17.542913447755134
10,108464097.31169723
1021,0.0
1058,364856535.39520207
2,1, 7,21, 0,13,50.00,60.00,SummerDesignDay
8,17.59724609886134
10,108464097.31169723
1021,0.0
1058,368617672.66874596
2,1, 7,21, 0,13, 0.00,60.00,SummerDesignDay
547,24.000000000000058
587,24.000000000000047
627,24.000000000000019
667,24.000000000000033
707,24.000000000000015
747,24.000000000000047
787,24.0
827,24.000000000000005
867,24.000000000000005
907,24.00000000000003
2,1, 7,21, 0,14, 0.00,10.00,SummerDesignDay
8,17.6311450462694
10,108464097.31169723
1021,0.0
1058,367854196.4970822
2,1, 7,21, 0,14,10.00,20.00,SummerDesignDay
8,17.665000449016245
10,108464097.31169723
1021,0.0
1058,370052085.54712876
2,1, 7,21, 0,14,20.00,30.00,SummerDesignDay
8,17.698812743128934
10,108464097.31169723
1021,0.0
1058,372166844.5683423
2,1, 7,21, 0,14,30.00,40.00,SummerDesignDay
8,17.732582050940107
10,108464097.31169723
1021,0.0
1058,374183250.8813987
2,1, 7,21, 0,14,40.00,50.00,SummerDesignDay
8,17.766307345121004
10,108464097.31169723
1021,0.0
1058,376135425.36892226
2,1, 7,21, 0,14,50.00,60.00,SummerDesignDay
8,17.79999023167558
10,108464097.31169723
1021,0.0
1058,378016385.9643964
2,1, 7,21, 0,14, 0.00,60.00,SummerDesignDay
547,24.000000000000076
587,24.000000000000019
627,24.000000000000069
667,24.00000000000003
707,24.00000000000001
747,24.00000000000001
787,24.0
827,24.000000000000019
867,24.000000000000005
907,24.00000000000003
2,1, 7,21, 0,15, 0.00,10.00,SummerDesignDay
8,17.79999023167558
10,108464097.31169723
1021,0.0
1058,368695570.5205934
2,1, 7,21, 0,15,10.00,20.00,SummerDesignDay
8,17.79999023167558
10,108464097.31169723
1021,0.0
1058,368456285.8753265
2,1, 7,21, 0,15,20.00,30.00,SummerDesignDay
8,17.79999023167558
10,108464097.31169723
1021,0.0
1058,368270364.3150747
2,1, 7,21, 0,15,30.00,40.00,SummerDesignDay
8,17.79999023167558
10,108464097.31169723
1021,0.0
1058,367900435.7792342
2,1, 7,21, 0,15,40.00,50.00,SummerDesignDay
8,17.79999023167558
10,108464097.31169723
1021,0.0
1058,367306703.09161099
2,1, 7,21, 0,15,50.00,60.00,SummerDesignDay
8,17.79999023167558
10,108464097.31169723
1021,0.0
1058,366451004.36574426
2,1, 7,21, 0,15, 0.00,60.00,SummerDesignDay
547,23.999999999999955
587,24.000000000000044
627,24.000000000000076
667,24.000000000000015
707,24.00000000000003
747,24.00000000000001
787,24.000000000000015
827,24.000000000000019
867,24.000000000000005
907,24.00000000000003
2,1, 7,21, 0,16, 0.00,10.00,SummerDesignDay
8,17.759562446305357
10,108464097.31169723
1021,0.0
1058,354866622.05651339
2,1, 7,21, 0,16,10.00,20.00,SummerDesignDay
8,17.71907809634183
10,108464097.31169723
1021,0.0
1058,351346356.67645737
2,1, 7,21, 0,16,20.00,30.00,SummerDesignDay
8,17.67853788661001
10,108464097.31169723
1021,0.0
1058,347630186.89973118
2,1, 7,21, 0,16,30.00,40.00,SummerDesignDay
8,17.63791796367351
10,108464097.31169723
1021,0.0
1058,343603741.36740478
2,1, 7,21, 0,16,40.00,50.00,SummerDesignDay
8,17.59724609886134
10,108464097.31169723
1021,0.0
1058,339324239.92402949
2,1, 7,21, 0,16,50.00,60.00,SummerDesignDay
8,17.55650676726033
10,108464097.31169723
1021,0.0
1058,334810633.047214
2,1, 7,21, 0,16, 0.00,60.00,SummerDesignDay
547,24.0
587,24.000000000000044
627,24.000000000000033
667,24.000000000000015
707,24.000000000000005
747,23.999999999999987
787,24.000000000000026
827,24.000000000000055
867,24.000000000000019
907,24.00000000000001
2,1, 7,21, 0,17, 0.00,10.00,SummerDesignDay
8,17.50209486331892
10,108839094.19070141
1021,0.0
1058,330533284.32450017
2,1, 7,21, 0,17,10.00,20.00,SummerDesignDay
8,17.447570789624618
10,108839094.19070141
1021,0.0
1058,325080632.95608738
2,1, 7,21, 0,17,20.00,30.00,SummerDesignDay
8,17.392929544208135
10,108839094.19070141
1021,0.0
1058,319429340.32158806
2,1, 7,21, 0,17,30.00,40.00,SummerDesignDay
8,17.33818013976614
10,108839094.19070141
1021,0.0
1058,313610048.68641087
2,1, 7,21, 0,17,40.00,50.00,SummerDesignDay
8,17.283317298559309
10,108839094.19070141
1021,0.0
1058,307627925.82464888
2,1, 7,21, 0,17,50.00,60.00,SummerDesignDay
8,17.22833552437677
10,108839094.19070141
1021,0.0
1058,301503065.5899765
2,1, 7,21, 0,17, 0.00,60.00,SummerDesignDay
547,24.0
587,23.999999999999976
627,24.0
667,24.000000000000026
707,24.000000000000019
747,23.999999999999998
787,24.00000000000001
827,24.000000000000026
867,24.000000000000005
907,24.000000000000044
2,1, 7,21, 0,18, 0.00,10.00,SummerDesignDay
8,17.159453019160176
10,106442864.13367097
1021,0.0
1058,295455408.291572
2,1, 7,21, 0,18,10.00,20.00,SummerDesignDay
8,17.090391773337136
10,106442864.13367097
1021,0.0
1058,288166539.43998518
2,1, 7,21, 0,18,20.00,30.00,SummerDesignDay
8,17.021151077964786
10,106442864.13367097
1021,0.0
1058,280815834.1367233
2,1, 7,21, 0,18,30.00,40.00,SummerDesignDay
8,16.951729380464653
10,106442864.13367097
1021,0.0
1058,273549394.5862777
2,1, 7,21, 0,18,40.00,50.00,SummerDesignDay
8,16.882126503829249
10,106442864.13367097
1021,0.0
1058,266405932.01434655
2,1, 7,21, 0,18,50.00,60.00,SummerDesignDay
8,16.812341807494034
10,106442864.13367097
1021,0.0
1058,259397923.31870166
2,1, 7,21, 0,18, 0.00,60.00,SummerDesignDay
547,24.000000000000015
587,24.000000000000019
627,24.000000000000005
667,24.000000000000015
707,24.0
747,24.000000000000033
787,24.00000000000001
827,23.99999999999999
867,23.999999999999987
907,24.00000000000004
2,1, 7,21, 0,19, 0.00,10.00,SummerDesignDay
8,16.707321072823203
10,95241707.35626626
1021,0.0
1058,248842865.91126449
2,1, 7,21, 0,19,10.00,20.00,SummerDesignDay
8,16.601881826644556
10,95241707.35626626
1021,0.0
1058,239496217.0707159
2,1, 7,21, 0,19,20.00,30.00,SummerDesignDay
8,16.496030555252849
10,95241707.35626626
1021,0.0
1058,230957080.92026223
2,1, 7,21, 0,19,30.00,40.00,SummerDesignDay
8,16.389760181474104
10,95241707.35626626
1021,0.0
1058,222692265.60187919
2,1, 7,21, 0,19,40.00,50.00,SummerDesignDay
8,16.283067654262039
10,95241707.35626626
1021,0.0
1058,214749028.6526969
2,1, 7,21, 0,19,50.00,60.00,SummerDesignDay
8,16.17595057957811
10,95241707.35626626
1021,0.0
1058,207036358.0570307
2,1, 7,21, 0,19, 0.00,60.00,SummerDesignDay
547,24.00000000000001
587,24.000000000000076
627,24.000000000000015
667,24.00000000000004
707,24.00000000000004
747,24.000000000000019
787,24.000000000000019
827,24.000000000000005
867,23.999999999999998
907,24.000000000000015
2,1, 7,21, 0,20, 0.00,10.00,SummerDesignDay
8,16.097123145563505
10,94836710.72873393
1021,0.0
1058,194238942.48050515
2,1, 7,21, 0,20,10.00,20.00,SummerDesignDay
8,16.018070242471564
10,94836710.72873393
1021,0.0
1058,189233681.37958855
2,1, 7,21, 0,20,20.00,30.00,SummerDesignDay
8,15.938779752340516
10,94836710.72873393
1021,0.0
1058,183905525.45079208
2,1, 7,21, 0,20,30.00,40.00,SummerDesignDay
8,15.85926152575189
10,94836710.72873393
1021,0.0
1058,178601851.0932733
2,1, 7,21, 0,20,40.00,50.00,SummerDesignDay
8,15.779503718563929
10,94836710.72873393
1021,0.0
1058,173202011.769377
2,1, 7,21, 0,20,50.00,60.00,SummerDesignDay
8,15.699515709672767
10,94836710.72873393
1021,0.0
1058,167698497.78979466
2,1, 7,21, 0,20, 0.00,60.00,SummerDesignDay
547,24.93269290599982
587,24.000000000000015
627,24.00000000000004
667,24.000000000000033
707,24.00000000000001
747,24.00000000000001
787,24.00000000000001
827,24.0
867,24.00000000000001
907,23.99999999999999
2,1, 7,21, 0,21, 0.00,10.00,SummerDesignDay
8,15.63389147320404
10,94772961.25993289
1021,0.0
1058,162586873.45275543
2,1, 7,21, 0,21,10.00,20.00,SummerDesignDay
8,15.56810827419793
10,94772961.25993289
1021,0.0
1058,157202585.92033715
2,1, 7,21, 0,21,20.00,30.00,SummerDesignDay
8,15.502170882753524
10,94772961.25993289
1021,0.0
1058,151824106.7949178
2,1, 7,21, 0,21,30.00,40.00,SummerDesignDay
8,15.436068032613852
10,94772961.25993289
1021,0.0
1058,146476894.7804833
2,1, 7,21, 0,21,40.00,50.00,SummerDesignDay
8,15.369804371206009
10,94772961.25993289
1021,0.0
1058,141543119.9714889
2,1, 7,21, 0,21,50.00,60.00,SummerDesignDay
8,15.303384603594449
10,94772961.25993289
1021,0.0
1058,136314570.30807216
2,1, 7,21, 0,21, 0.00,60.00,SummerDesignDay
547,24.58693462278133
587,24.0
627,24.000000000000005
667,24.000000000000026
707,24.000000000000026
747,24.000000000000019
787,24.00000000000001
827,24.000000000000058
867,24.00000000000001
907,24.00000000000001
2,1, 7,21, 0,22, 0.00,10.00,SummerDesignDay
8,15.236797685071274
10,84916168.29465425
1021,0.0
1058,114899392.66169715
2,1, 7,21, 0,22,10.00,20.00,SummerDesignDay
8,15.170047891787942
10,84916168.29465425
1021,0.0
1058,112255029.41199579
2,1, 7,21, 0,22,20.00,30.00,SummerDesignDay
8,15.103134826860483
10,84916168.29465425
1021,0.0
1058,109630713.86775719
2,1, 7,21, 0,22,30.00,40.00,SummerDesignDay
8,15.036063385178485
10,84916168.29465425
1021,0.0
1058,106838741.54485797
2,1, 7,21, 0,22,40.00,50.00,SummerDesignDay
8,14.968821767219835
10,84916168.29465425
1021,0.0
1058,104008101.19657895
2,1, 7,21, 0,22,50.00,60.00,SummerDesignDay
8,14.90141525878635
10,84916168.29465425
1021,0.0
1058,101062565.26274061
2,1, 7,21, 0,22, 0.00,60.00,SummerDesignDay
547,23.84279762122488
587,23.921691630309494
627,24.641913874577069
667,24.00000000000001
707,24.000000000000019
747,24.00000000000004
787,24.000000000000026
827,24.000000000000069
867,23.99999999999999
907,24.000000000000005
2,1, 7,21, 0,23, 0.00,10.00,SummerDesignDay
8,14.848873673278373
10,82789935.99011934
1021,0.0
1058,84578975.92406729
2,1, 7,21, 0,23,10.00,20.00,SummerDesignDay
8,14.796237168136719
10,82789935.99011934
1021,0.0
1058,81495554.88433653
2,1, 7,21, 0,23,20.00,30.00,SummerDesignDay
8,14.743494321455645
10,82789935.99011934
1021,0.0
1058,78658993.9132254
2,1, 7,21, 0,23,30.00,40.00,SummerDesignDay
8,14.690649975253665
10,82789935.99011934
1021,0.0
1058,75831359.45623665
2,1, 7,21, 0,23,40.00,50.00,SummerDesignDay
8,14.637704281233117
10,82789935.99011934
1021,0.0
1058,73026943.89647384
2,1, 7,21, 0,23,50.00,60.00,SummerDesignDay
8,14.584656914839757
10,82789935.99011934
1021,0.0
1058,70236951.69248635
2,1, 7,21, 0,23, 0.00,60.00,SummerDesignDay
547,23.255458791940453
587,23.459151401724239
627,24.667825909980917
667,24.000000000000044
707,24.00000000000001
747,24.000000000000019
787,23.999999999999998
827,24.00000000000001
867,24.0
907,24.000000000000019
2,1, 7,21, 0,24, 0.00,10.00,SummerDesignDay
8,14.531507212058875
10,77901851.67104055
1021,0.0
1058,55927420.98501041
2,1, 7,21, 0,24,10.00,20.00,SummerDesignDay
8,14.47825496413355
10,77901851.67104055
1021,0.0
1058,52540391.758041437
2,1, 7,21, 0,24,20.00,30.00,SummerDesignDay
8,14.4249000133173
10,77901851.67104055
1021,0.0
1058,49562192.45752421
2,1, 7,21, 0,24,30.00,40.00,SummerDesignDay
8,14.371447531304272
10,77901851.67104055
1021,0.0
1058,46591648.16786258
2,1, 7,21, 0,24,40.00,50.00,SummerDesignDay
8,14.31788619902223
10,77901851.67104055
1021,0.0
1058,43646510.99294324
2,1, 7,21, 0,24,50.00,60.00,SummerDesignDay
8,14.264220970176066
10,77901851.67104055
1021,0.0
1058,40714440.19783958
2,1, 7,21, 0,24, 0.00,60.00,SummerDesignDay
547,22.770493747012539
587,23.031133869755494
627,24.220175706374279
667,24.000000000000015
707,24.000000000000026
747,24.000000000000015
787,24.000000000000005
827,24.00000000000001
867,24.000000000000015
907,24.0
3,1, 7,21, 0,SummerDesignDay
548,46.026686001695,40.31404337405371,20,30,54.374651193549109, 5,60
588,46.12462808382944,41.86101965751259,10,60,52.61002193715311, 5,20
628,43.82674549388033,40.58763527101484,22,30,49.18270323044372, 5,50
668,46.321629263150267,41.63176717301647,17,60,50.95908167665127, 7,10
708,46.516007556372617,41.63206088759606,17,60,51.50142334923038, 7,10
748,46.13980736227743,41.63152056248655,17,60,50.80582308036581, 6,60
788,45.19487174179606,40.73907967576913,15,10,53.18611463760564, 6,10
828,45.37169501614417,40.50566376295514, 8,60,53.9094084727429, 5,20
868,45.40247634184231,40.895649325716949,16,60,52.386455288329518, 6,60
908,45.92513606528792,41.67506846205016,17,60,50.31378269186922, 7,10
4,1, 7
7,22.2505,16.5,21, 5,60,28.9,21,14,60
1,FORT MCMURRAY AP ANN HTG 99.6% CONDNS DB,  56.65,-111.22,  -7.00, 369.10
2,1, 1,21, 0, 1, 0.00,10.00,WinterDesignDay
8,-36.2
10,70773160.99942744
1021,822360549.2347388
1058,0.0
2,1, 1,21, 0, 1,10.00,20.00,WinterDesignDay
8,-36.2
10,70773160.99942744
1021,822924158.8524106
1058,0.0
2,1, 1,21, 0, 1,20.00,30.00,WinterDesignDay
8,-36.2
10,70773160.99942744
1021,823129873.5006614
1058,0.0
2,1, 1,21, 0, 1,30.00,40.00,WinterDesignDay
8,-36.2
10,70773160.99942744
1021,823338057.4761684
1058,0.0
2,1, 1,21, 0, 1,40.00,50.00,WinterDesignDay
8,-36.2
10,70773160.99942744
1021,823524981.7336224
1058,0.0
2,1, 1,21, 0, 1,50.00,60.00,WinterDesignDay
8,-36.2
10,70773160.99942744
1021,823696435.0552547
1058,0.0
2,1, 1,21, 0, 1, 0.00,60.00,WinterDesignDay
547,18.0
587,17.999999999999984
627,17.999999999999984
667,22.0
707,22.000000000000005
747,22.000000000000005
787,22.00000000000001
827,21.999999999999984
867,22.0
907,22.0
2,1, 1,21, 0, 2, 0.00,10.00,WinterDesignDay
8,-36.2
10,39652169.999698039
1021,742535257.0103057
1058,0.0
2,1, 1,21, 0, 2,10.00,20.00,WinterDesignDay
8,-36.2
10,39652169.999698039
1021,777630823.4484581
1058,0.0
2,1, 1,21, 0, 2,20.00,30.00,WinterDesignDay
8,-36.2
10,39652169.999698039
1021,801052178.7308258
1058,0.0
2,1, 1,21, 0, 2,30.00,40.00,WinterDesignDay
8,-36.2
10,39652169.999698039
1021,812895587.8493314
1058,0.0
2,1, 1,21, 0, 2,40.00,50.00,WinterDesignDay
8,-36.2
10,39652169.999698039
1021,811850309.0651026
1058,0.0
2,1, 1,21, 0, 2,50.00,60.00,WinterDesignDay
8,-36.2
10,39652169.999698039
1021,815131377.2014934
1058,0.0
2,1, 1,21, 0, 2, 0.00,60.00,WinterDesignDay
547,17.999999999999998
587,17.999999999999994
627,17.999999999999976
667,22.0
707,22.0
747,22.0
787,18.386610406775888
827,22.000000000000005
867,18.245287537597155
907,22.0
2,1, 1,21, 0, 3, 0.00,10.00,WinterDesignDay
8,-36.2
10,13012391.705037313
1021,572816197.0679268
1058,0.0
2,1, 1,21, 0, 3,10.00,20.00,WinterDesignDay
8,-36.2
10,13012391.705037313
1021,669878566.8182765
1058,0.0
2,1, 1,21, 0, 3,20.00,30.00,WinterDesignDay
8,-36.2
10,13012391.705037313
1021,719471438.8427237
1058,0.0
2,1, 1,21, 0, 3,30.00,40.00,WinterDesignDay
8,-36.2
10,13012391.705037313
1021,726041541.7236489
1058,0.0
2,1, 1,21, 0, 3,40.00,50.00,WinterDesignDay
8,-36.2
10,13012391.705037313
1021,738684834.7294527
1058,0.0
2,1, 1,21, 0, 3,50.00,60.00,WinterDesignDay
8,-36.2
10,13012391.705037313
1021,741264166.8478463
1058,0.0
2,1, 1,21, 0, 3, 0.00,60.00,WinterDesignDay
547,17.99999999999999
587,17.999999999999994
627,18.00000000000001
667,18.12140794338193
707,18.119802374778009
747,18.12154584499758
787,18.00000000000011
827,18.104155105887256
867,18.00000000000183
907,18.12296546362037
2,1, 1,21, 0, 4, 0.00,10.00,WinterDesignDay
8,-36.2
10,11876151.161267162
1021,743991173.9212557
1058,0.0
2,1, 1,21, 0, 4,10.00,20.00,WinterDesignDay
8,-36.2
10,11876151.161267162
1021,746015679.2537804
1058,0.0
2,1, 1,21, 0, 4,20.00,30.00,WinterDesignDay
8,-36.2
10,11876151.161267162
1021,747873075.2796726
1058,0.0
2,1, 1,21, 0, 4,30.00,40.00,WinterDesignDay
8,-36.2
10,11876151.161267162
1021,749609781.441568
1058,0.0
2,1, 1,21, 0, 4,40.00,50.00,WinterDesignDay
8,-36.2
10,11876151.161267162
1021,751245164.9906594
1058,0.0
2,1, 1,21, 0, 4,50.00,60.00,WinterDesignDay
8,-36.2
10,11876151.161267162
1021,752798140.0466882
1058,0.0
2,1, 1,21, 0, 4, 0.00,60.00,WinterDesignDay