Program Version,EnergyPlus, Version 8.9.0-eba93e8e1b, YMD=2019.03.26 20:19
1,5,Environment Title[],Latitude[deg],Longitude[deg],Time Zone[],Elevation[m]
2,8,Day of Simulation[],Month[],Day of Month[],DST Indicator[1=yes 0=no],Hour[],StartMinute[],EndMinute[],DayType
3,5,Cumulative Day of Simulation[],Month[],Day of Month[],DST Indicator[1=yes 0=no],DayType  ! When Daily Report Variables Requested
4,2,Cumulative Days of Simulation[],Month[]  ! When Monthly Report Variables Requested
5,1,Cumulative Days of Simulation[] ! When Run Period Report Variables Requested
6,1,Calendar Year of Simulation[] ! When Annual Report Variables Requested
7,9,Environment,Site Outdoor Air Drybulb Temperature [C] !Monthly [Value,Min,Day,Hour,Minute,Max,Day,Hour,Minute]
8,1,Environment,Site Outdoor Air Wetbulb Temperature [C] !TimeStep
914,1,MANUFACTURING FACILITY EQUIPMENT ROOM-SPACE FUNCTION ZN,Zone Air Temperature [C] !Hourly
915,7,MANUFACTURING FACILITY EQUIPMENT ROOM-SPACE FUNCTION ZN,Zone Air Relative Humidity [%] !Daily [Value,Min,Hour,Minute,Max,Hour,Minute]
954,1,MANUFACTURING FACILITY EXTRA HIGH BAY AREA (> 15 M FLOOR-TO-CEILING HEIGHT)-SPACE FUNCTION ZN,Zone Air Temperature [C] !Hourly
955,7,MANUFACTURING FACILITY EXTRA HIGH BAY AREA (> 15 M FLOOR-TO-CEILING HEIGHT)-SPACE FUNCTION ZN,Zone Air Relative Humidity [%] !Daily [Value,Min,Hour,Minute,Max,Hour,Minute]
994,1,MANUFACTURING FACILITY HIGH BAY AREA (7.5 TO 15 M FLOOR-TO-CEILING HEIGHT)-SPACE FUNCTION ZN,Zone Air Temperature [C] !Hourly
995,7,MANUFACTURING FACILITY HIGH BAY AREA (7.5 TO 15 M FLOOR-TO-CEILING HEIGHT)-SPACE FUNCTION ZN,Zone Air Relative Humidity [%] !Daily [Value,Min,Hour,Minute,Max,Hour,Minute]
1034,1,MANUFACTURING FACILITY LOW BAY AREA (< 7.5 M FLOOR-TO-CEILING HEIGHT)-SPACE FUNCTION ZN,Zone Air Temperature [C] !Hourly
1035,7,MANUFACTURING FACILITY LOW BAY AREA (< 7.5 M FLOOR-TO-CEILING HEIGHT)-SPACE FUNCTION ZN,Zone Air Relative Humidity [%] !Daily [Value,Min,Hour,Minute,Max,Hour,Minute]
1074,1,MUSEUM GENERAL EXHIBITION AREA-SPACE FUNCTION ZN,Zone Air Temperature [C] !Hourly
1075,7,MUSEUM GENERAL EXHIBITION AREA-SPACE FUNCTION ZN,Zone Air Relative Humidity [%] !Daily [Value,Min,Hour,Minute,Max,Hour,Minute]
1114,1,MUSEUM RESTORATION ROOM-SPACE FUNCTION ZN,Zone Air Temperature [C] !Hourly
1115,7,MUSEUM RESTORATION ROOM-SPACE FUNCTION ZN,Zone Air Relative Humidity [%] !Daily [Value,Min,Hour,Minute,Max,Hour,Minute]
1154,1,POST OFFICE SORTING AREA-SPACE FUNCTION ZN,Zone Air Temperature [C] !Hourly
1155,7,POST OFFICE SORTING AREA-SPACE FUNCTION ZN,Zone Air Relative Humidity [%] !Daily [Value,Min,Hour,Minute,Max,Hour,Minute]
1194,1,RELIGIOUS BUILDING FELLOWSHIP HALL-SPACE FUNCTION ZN,Zone Air Temperature [C] !Hourly
1195,7,RELIGIOUS BUILDING FELLOWSHIP HALL-SPACE FUNCTION ZN,Zone Air Relative Humidity [%] !Daily [Value,Min,Hour,Minute,Max,Hour,Minute]
1234,1,RETAIL FACILITY DRESSING/FITTING ROOM-SPACE FUNCTION ZN,Zone Air Temperature [C] !Hourly
1235,7,RETAIL FACILITY DRESSING/FITTING ROOM-SPACE FUNCTION ZN,Zone Air Relative Humidity [%] !Daily [Value,Min,Hour,Minute,Max,Hour,Minute]
1274,1,RETAIL FACILITY MALL CONCOURSE-SPACE FUNCTION ZN,Zone Air Temperature [C] !Hourly
1275,7,RETAIL FACILITY MALL CONCOURSE-SPACE FUNCTION ZN,Zone Air Relative Humidity [%] !Daily [Value,Min,Hour,Minute,Max,Hour,Minute]
1314,1,SPACE DESIGNED TO ANSI/IES RP-28 RECREATION ROOM (USED PRIMARILY BY RESIDENTS)-SPACE FUNCTION ZN,Zone Air Temperature [C] !Hourly
1315,7,SPACE DESIGNED TO ANSI/IES RP-28 RECREATION ROOM (USED PRIMARILY BY RESIDENTS)-SPACE FUNCTION ZN,Zone Air Relative Humidity [%] !Daily [Value,Min,Hour,Minute,Max,Hour,Minute]
1354,1,SPORTS ARENA PLAYING AREA CLASS I FACILITY(4)-SPACE FUNCTION ZN,Zone Air Temperature [C] !Hourly
1355,7,SPORTS ARENA PLAYING AREA CLASS I FACILITY(4)-SPACE FUNCTION ZN,Zone Air Relative Humidity [%] !Daily [Value,Min,Hour,Minute,Max,Hour,Minute]
1394,1,SPORTS ARENA PLAYING AREA CLASS II FACILITY(4)-SPACE FUNCTION ZN,Zone Air Temperature [C] !Hourly
1395,7,SPORTS ARENA PLAYING AREA CLASS II FACILITY(4)-SPACE FUNCTION ZN,Zone Air Relative Humidity [%] !Daily [Value,Min,Hour,Minute,Max,Hour,Minute]
1434,1,SPORTS ARENA PLAYING AREA CLASS III FACILITY(4)-SPACE FUNCTION ZN,Zone Air Temperature [C] !Hourly
1435,7,SPORTS ARENA PLAYING AREA CLASS III FACILITY(4)-SPACE FUNCTION ZN,Zone Air Relative Humidity [%] !Daily [Value,Min,Hour,Minute,Max,Hour,Minute]
1474,1,SPORTS ARENA PLAYING AREA CLASS IV FACILITY(4)-SPACE FUNCTION ZN,Zone Air Temperature [C] !Hourly
1475,7,SPORTS ARENA PLAYING AREA CLASS IV FACILITY(4)-SPACE FUNCTION ZN,Zone Air Relative Humidity [%] !Daily [Value,Min,Hour,Minute,Max,Hour,Minute]
1514,1,TRANSPORTATION FACILITY AIRPORT CONCOURSE-SPACE FUNCTION ZN,Zone Air Temperature [C] !Hourly
1515,7,TRANSPORTATION FACILITY AIRPORT CONCOURSE-SPACE FUNCTION ZN,Zone Air Relative Humidity [%] !Daily [Value,Min,Hour,Minute,Max,Hour,Minute]
1554,1,TRANSPORTATION FACILITY BAGGAGE/CAROUSEL AREA-SPACE FUNCTION ZN,Zone Air Temperature [C] !Hourly
1555,7,TRANSPORTATION FACILITY BAGGAGE/CAROUSEL AREA-SPACE FUNCTION ZN,Zone Air Relative Humidity [%] !Daily [Value,Min,Hour,Minute,Max,Hour,Minute]
1594,1,TRANSPORTATION FACILITY TERMINAL TICKET COUNTER-SPACE FUNCTION ZN,Zone Air Temperature [C] !Hourly
1595,7,TRANSPORTATION FACILITY TERMINAL TICKET COUNTER-SPACE FUNCTION ZN,Zone Air Relative Humidity [%] !Daily [Value,Min,Hour,Minute,Max,Hour,Minute]
1634,1,WAREHOUSE STORAGE AREA MEDIUM TO BULKY PALLETIZED ITEMS-SPACE FUNCTION ZN,Zone Air Temperature [C] !Hourly
1635,7,WAREHOUSE STORAGE AREA MEDIUM TO BULKY PALLETIZED ITEMS-SPACE FUNCTION ZN,Zone Air Relative Humidity [%] !Daily [Value,Min,Hour,Minute,Max,Hour,Minute]
1674,1,WAREHOUSE STORAGE AREA SMALL HAND-CARRIED ITEMS(4)-SPACE FUNCTION ZN,Zone Air Temperature [C] !Hourly
1675,7,WAREHOUSE STORAGE AREA SMALL HAND-CARRIED ITEMS(4)-SPACE FUNCTION ZN,Zone Air Relative Humidity [%] !Daily [Value,Min,Hour,Minute,Max,Hour,Minute]
10,1,Electricity:Facility [J] !TimeStep
1825,1,DistrictCooling:Facility [J] !TimeStep
1788,1,DistrictHeating:Facility [J] !TimeStep
End of Data Dictionary
1,FORT MCMURRAY AP ANN CLG .4% CONDNS DB=>MWB,  56.65,-111.22,  -7.00, 369.10
2,1, 7,21, 0, 1, 0.00,10.00,SummerDesignDay
8,14.218136923962174
10,186083224.60023175
1788,8337264.738347803
1825,106468104.26452002
2,1, 7,21, 0, 1,10.00,20.00,SummerDesignDay
8,14.171982153293495
10,186083224.60023175
1788,9302795.12935876
1825,104110344.72010874
2,1, 7,21, 0, 1,20.00,30.00,SummerDesignDay
8,14.125744780286427
10,186083224.60023175
1788,10267270.899353186
1825,101784497.47554849
2,1, 7,21, 0, 1,30.00,40.00,SummerDesignDay
8,14.079436086331978
10,186083224.60023175
1788,11230557.766264156
1825,99483848.1301651
2,1, 7,21, 0, 1,40.00,50.00,SummerDesignDay
8,14.033050387896898
10,186083224.60023175
1788,12192855.847250689
1825,97220468.80557013
2,1, 7,21, 0, 1,50.00,60.00,SummerDesignDay
8,13.986581233564835
10,186083224.60023175
1788,13154412.54774435
1825,94982909.67230997
2,1, 7,21, 0, 1, 0.00,60.00,SummerDesignDay
914,23.10477576966144
954,22.894774481054346
994,24.402086903051456
1034,24.001493579505106
1074,24.073500729994774
1114,23.66779926263081
1154,23.72326243277506
1194,21.150490660223665
1234,23.701831346577774
1274,22.402071637903715
1314,23.16951642689538
1354,23.999999999999984
1394,24.00000000000003
1434,24.000000000000044
1474,24.000000000000005
1514,22.00000015523651
1554,24.00000000000001
1594,24.00000000000003
1634,25.425729747166704
1674,25.74327837955923
2,1, 7,21, 0, 2, 0.00,10.00,SummerDesignDay
8,13.95555882260429
10,120516454.87468487
1788,0.0
1825,22439068.966605784
2,1, 7,21, 0, 2,10.00,20.00,SummerDesignDay
8,13.924507755336454
10,120516454.87468487
1788,2692952.9941849785
1825,22049030.104189114
2,1, 7,21, 0, 2,20.00,30.00,SummerDesignDay
8,13.893416042989206
10,120516454.87468487
1788,9299711.995170979
1825,21653669.581473128
2,1, 7,21, 0, 2,30.00,40.00,SummerDesignDay
8,13.862289589689029
10,120516454.87468487
1788,5692493.71734383
1825,21240735.442057678
2,1, 7,21, 0, 2,40.00,50.00,SummerDesignDay
8,13.831134407608739
10,120516454.87468487
1788,7559228.182212727
1825,20780308.554165
2,1, 7,21, 0, 2,50.00,60.00,SummerDesignDay
8,13.799938415548118
10,120516454.87468487
1788,8610668.038476762
1825,20315855.15343699
2,1, 7,21, 0, 2, 0.00,60.00,SummerDesignDay
914,22.653014957012947
954,22.444421839050233
994,24.091148067272056
1034,23.694797103372083
1074,23.73518627539936
1114,23.447296344342534
1154,23.319282051988979
1194,20.761130900660559
1234,23.439355730409916
1274,22.118344138707113
1314,22.10139701521139
1354,25.135134209281366
1394,24.48187607952602
1434,24.583633519781058
1474,23.744802447344637
1514,20.961517302372177
1554,24.000000000000015
1594,24.000000000000019
1634,25.268494260185027
1674,25.640848348408445
2,1, 7,21, 0, 3, 0.00,10.00,SummerDesignDay
8,13.776521671948676
10,59636697.892122548
1788,0.0
1825,19921132.391642065
2,1, 7,21, 0, 3,10.00,20.00,SummerDesignDay
8,13.753085235778466
10,59636697.892122548
1788,0.0
1825,19521573.789084305
2,1, 7,21, 0, 3,20.00,30.00,SummerDesignDay
8,13.729636002354969
10,59636697.892122548
1788,0.0
1825,19114851.552452394
2,1, 7,21, 0, 3,30.00,40.00,SummerDesignDay
8,13.706147375533054
10,59636697.892122548
1788,0.0
1825,18700237.784790234
2,1, 7,21, 0, 3,40.00,50.00,SummerDesignDay
8,13.682651961920304
10,59636697.892122548
1788,0.0
1825,18280230.61638117
2,1, 7,21, 0, 3,50.00,60.00,SummerDesignDay
8,13.659136670643687
10,59636697.892122548
1788,0.0
1825,17856623.840301556
2,1, 7,21, 0, 3, 0.00,60.00,SummerDesignDay
914,22.26202845231641
954,22.05622868645302
994,23.839336648816184
1034,23.446851171416829
1074,23.4588559997747
1114,23.26874785986266
1154,22.966821885116
1194,20.468943846924355
1234,23.202476282741516
1274,21.901661785310059
1314,20.68613178112216
1354,23.736825013607417
1394,23.664235500877955
1434,23.964751498791519
1474,23.02506553176475
1514,20.55016794722874
1554,24.000000000000015
1594,24.000000000000015
1634,25.133872516985226
1674,25.545598680745
2,1, 7,21, 0, 4, 0.00,10.00,SummerDesignDay
8,13.63560137410855
10,59636697.892122548
1788,0.0
1825,17428026.44317757
2,1, 7,21, 0, 4,10.00,20.00,SummerDesignDay
8,13.612040802606578
10,59636697.892122548
1788,0.0
1825,16995695.84939907
2,1, 7,21, 0, 4,20.00,30.00,SummerDesignDay
8,13.58846620506876
10,59636697.892122548
1788,0.0
1825,16560670.999426576
2,1, 7,21, 0, 4,30.00,40.00,SummerDesignDay
8,13.56487178447336
10,59636697.892122548
1788,0.0
1825,16123404.45264117
2,1, 7,21, 0, 4,40.00,50.00,SummerDesignDay
8,13.541257354069103
10,59636697.892122548
1788,0.0
1825,15684234.01353714
2,1, 7,21, 0, 4,50.00,60.00,SummerDesignDay
8,13.517617463812285
10,59636697.892122548
1788,0.0
1825,15243423.401528098
2,1, 7,21, 0, 4, 0.00,60.00,SummerDesignDay
914,21.827750981438198
954,21.62524740869118
994,23.56604085992259
1034,23.177379418024257
1074,23.140263713803248
1114,23.07684232086247
1154,22.56510910091669
1194,20.181415385643878
1234,22.907859152911429
1274,21.67346196165994
1314,19.784974093420236
1354,22.332550302304289
1394,22.995672640872347
1434,23.41839513680563
1474,22.515575280841863
1514,20.252067906445214
1554,24.000000000000026
1594,24.00000000000001
1634,24.975918778451378
1674,25.40287740804975
2,1, 7,21, 0, 5, 0.00,10.00,SummerDesignDay
8,13.50185415824011
10,59636697.892122548
1788,0.0
1825,14874373.280170162
2,1, 7,21, 0, 5,10.00,20.00,SummerDesignDay
8,13.486076034032447
10,59636697.892122548
1788,0.0
1825,14898545.167541523
2,1, 7,21, 0, 5,20.00,30.00,SummerDesignDay
8,13.470289340350983
10,59636697.892122548
1788,0.0
1825,14867752.204251178
2,1, 7,21, 0, 5,30.00,40.00,SummerDesignDay
8,13.454493322631063
10,59636697.892122548
1788,0.0
1825,14835064.696361758
2,1, 7,21, 0, 5,40.00,50.00,SummerDesignDay
8,13.438688835118548
10,59636697.892122548
1788,0.0
1825,14754675.919160426
2,1, 7,21, 0, 5,50.00,60.00,SummerDesignDay
8,13.422888173889437
10,59636697.892122548
1788,0.0
1825,14592934.37184799
2,1, 7,21, 0, 5, 0.00,60.00,SummerDesignDay
914,21.546298708211628
954,21.46540026236053
994,23.332226580241895
1034,23.003830364531784
1074,22.841248931423839
1114,22.915552215493816
1154,22.499172302044774
1194,19.944016306134715
1234,22.630706494909906
1274,21.473729283401938
1314,19.448503219804555
1354,21.875680645737899
1394,22.727815488276929
1434,23.242438371278156
1474,22.278350109278127
1514,20.009210633763649
1554,24.000000000000019
1594,24.000000000000015
1634,24.83703372314856
1674,25.359988410471869
2,1, 7,21, 0, 6, 0.00,10.00,SummerDesignDay
8,13.438688835118548
10,59636697.892122548
1788,0.0
1825,14643877.85030954
2,1, 7,21, 0, 6,10.00,20.00,SummerDesignDay
8,13.454493322631063
10,59636697.892122548
1788,0.0
1825,14618071.374816018
2,1, 7,21, 0, 6,20.00,30.00,SummerDesignDay
8,13.470289340350983
10,59636697.892122548
1788,0.0
1825,14535502.274408652
2,1, 7,21, 0, 6,30.00,40.00,SummerDesignDay
8,13.486076034032447
10,59636697.892122548
1788,0.0
1825,14423800.214705242
2,1, 7,21, 0, 6,40.00,50.00,SummerDesignDay
8,13.50185415824011
10,59636697.892122548
1788,0.0
1825,14301508.84146164
2,1, 7,21, 0, 6,50.00,60.00,SummerDesignDay
8,13.517617463812285
10,59636697.892122548
1788,0.0
1825,14191050.566631526
2,1, 7,21, 0, 6, 0.00,60.00,SummerDesignDay
914,21.607799596670409
954,21.754642927376755
994,23.197724056307107
1034,22.968841502952519
1074,22.65209944051966
1114,22.815216899785189
1154,23.510055139722195
1194,19.85658945854587
1234,22.433818168466478
1274,21.370861761569285
1314,19.450198201638587
1354,21.851488333798696
1394,22.581933158869693
1434,23.507436459796126
1474,22.14650460762807
1514,19.92844052726063
1554,24.000000000000026
1594,23.99999999999999
1634,24.742225392126739
1674,25.755906245588194
2,1, 7,21, 0, 7, 0.00,10.00,SummerDesignDay
8,13.572736920571789
10,59636697.892122548
1788,0.0
1825,70278015.85478035
2,1, 7,21, 0, 7,10.00,20.00,SummerDesignDay
8,13.627748229152554
10,59636697.892122548
1788,0.0
1825,32765051.289095798
2,1, 7,21, 0, 7,20.00,30.00,SummerDesignDay
8,13.682651961920304
10,59636697.892122548
1788,0.0
1825,60735594.49892575
2,1, 7,21, 0, 7,30.00,40.00,SummerDesignDay
8,13.737448093244995
10,59636697.892122548
1788,0.0
1825,42525930.36080482
2,1, 7,21, 0, 7,40.00,50.00,SummerDesignDay
8,13.792137011831216
10,59636697.892122548
1788,0.0
1825,46754650.339165229
2,1, 7,21, 0, 7,50.00,60.00,SummerDesignDay
8,13.846719282840333
10,59636697.892122548
1788,0.0
1825,48459146.26246324
2,1, 7,21, 0, 7, 0.00,60.00,SummerDesignDay
914,22.042785548351657
954,22.08580395766464
994,23.236837410741598
1034,22.972700908737524
1074,22.667961959559894
1114,22.840630941910736
1154,24.000026420743898
1194,20.047485918907765
1234,22.404394867738036
1274,21.453568084433415
1314,19.89392803742089
1354,22.22100207292931
1394,22.64422828833764
1434,23.958805703502408
1474,22.198391808265645
1514,20.150190543397608
1554,24.000000000000005
1594,24.000000000000015
1634,23.95762167498923
1674,23.928032162654846
2,1, 7,21, 0, 8, 0.00,10.00,SummerDesignDay
8,13.978831900527043
10,87567094.71481216
1788,0.0
1825,56029916.49223139
2,1, 7,21, 0, 8,10.00,20.00,SummerDesignDay
8,14.110321014287419
10,87567094.71481216
1788,0.0
1825,59404931.23980349
2,1, 7,21, 0, 8,20.00,30.00,SummerDesignDay
8,14.241191509616986
10,87567094.71481216
1788,0.0
1825,62494154.40163562
2,1, 7,21, 0, 8,30.00,40.00,SummerDesignDay
8,14.371447531304272
10,87567094.71481216
1788,0.0
1825,65315327.549214947
2,1, 7,21, 0, 8,40.00,50.00,SummerDesignDay
8,14.501093766564925
10,87567094.71481216
1788,0.0
1825,72821155.3913289
2,1, 7,21, 0, 8,50.00,60.00,SummerDesignDay
8,14.630134792273804
10,87567094.71481216
1788,0.0
1825,87305180.72525291
2,1, 7,21, 0, 8, 0.00,60.00,SummerDesignDay
914,23.39205054088589
954,23.386326410551577
994,23.7950589730084
1034,23.552050841916868
1074,23.016702810611965
1114,23.314144059165746
1154,24.00000000000007
1194,20.713064942635567
1234,22.635613787132077
1274,21.851999784158634
1314,21.096365850552958
1354,23.269426376003115
1394,23.01575548917057
1434,24.646184609683336
1474,22.551403542262574
1514,20.90047071043259
1554,24.00000000000001
1594,24.000000000000005
1634,23.999999999999859
1674,23.999999999939406
2,1, 7,21, 0, 9, 0.00,10.00,SummerDesignDay
8,14.773641492809972
10,192760162.762426
1788,24332377.012716697
1825,181543471.46396176
2,1, 7,21, 0, 9,10.00,20.00,SummerDesignDay
8,14.91640948124148
10,192760162.762426
1788,843113.1169925303
1825,195442402.1950806
2,1, 7,21, 0, 9,20.00,30.00,SummerDesignDay
8,15.05843890714102
10,192760162.762426
1788,0.0
1825,218729693.7507244
2,1, 7,21, 0, 9,30.00,40.00,SummerDesignDay
8,15.199735893563798
10,192760162.762426
1788,0.0
1825,233480906.97733677
2,1, 7,21, 0, 9,40.00,50.00,SummerDesignDay
8,15.340306256439395
10,192760162.762426
1788,0.0
1825,248677418.8736775
2,1, 7,21, 0, 9,50.00,60.00,SummerDesignDay
8,15.48015101768072
10,192760162.762426
1788,0.0
1825,265318298.96305219
2,1, 7,21, 0, 9, 0.00,60.00,SummerDesignDay
914,23.999996947631407
954,23.99999670766047
994,23.999999936668958
1034,23.99981733840565
1074,23.877316371429186
1114,23.98388950948788
1154,24.000000000000019
1194,22.40662244148328
1234,23.499115041920676
1274,22.93765787422552
1314,22.96845867083519
1354,23.999901118619989
1394,23.689132456270597
1434,23.985955841349847
1474,23.22218288053102
1514,22.34197909611611
1554,24.00000000000001
1594,24.0
1634,24.000000000000005
1674,24.000000000000005
2,1, 7,21, 0,10, 0.00,10.00,SummerDesignDay
8,15.60467292907716
10,293663734.9808159
1788,0.0
1825,352222079.529253
2,1, 7,21, 0,10,10.00,20.00,SummerDesignDay
8,15.72862731650033
10,293663734.9808159
1788,0.0
1825,389523720.30956366
2,1, 7,21, 0,10,20.00,30.00,SummerDesignDay
8,15.852017409284228
10,293663734.9808159
1788,0.0
1825,411855834.03556409
2,1, 7,21, 0,10,30.00,40.00,SummerDesignDay
8,15.974848118364367
10,293663734.9808159
1788,0.0
1825,438293589.9591532
2,1, 7,21, 0,10,40.00,50.00,SummerDesignDay
8,16.097123145563505
10,293663734.9808159
1788,0.0
1825,468813724.37081757
2,1, 7,21, 0,10,50.00,60.00,SummerDesignDay
8,16.218846351168599
10,293663734.9808159
1788,0.0
1825,495752916.2736386
2,1, 7,21, 0,10, 0.00,60.00,SummerDesignDay
914,24.000000000000005
954,24.00000000000003
994,23.999999999999998
1034,23.999999999999969
1074,23.999999997391968
1114,23.999999999999589
1154,24.000000000000005
1194,23.76782302989592
1234,23.99985246970607
1274,23.96187917843567
1314,23.998706541989447
1354,23.999999999999916
1394,23.999989878071849
1434,23.999999999991645
1474,23.98325734274481
1514,23.600507736669888
1554,24.00000000000001
1594,24.0
1634,24.00000000000001
1674,24.000000000000005
2,1, 7,21, 0,11, 0.00,10.00,SummerDesignDay
8,16.325793027093189
10,327749067.8277515
1788,0.0
1825,555917747.4799773
2,1, 7,21, 0,11,10.00,20.00,SummerDesignDay
8,16.432322158488288
10,327749067.8277515
1788,0.0
1825,581430476.5510709
2,1, 7,21, 0,11,20.00,30.00,SummerDesignDay
8,16.538424180249178
10,327749067.8277515
1788,0.0
1825,604110213.4887542
2,1, 7,21, 0,11,30.00,40.00,SummerDesignDay
8,16.644108396469087
10,327749067.8277515
1788,0.0
1825,625794785.9372201
2,1, 7,21, 0,11,40.00,50.00,SummerDesignDay
8,16.749376736593655
10,327749067.8277515
1788,0.0
1825,647052141.448817
2,1, 7,21, 0,11,50.00,60.00,SummerDesignDay
8,16.854232613237156
10,327749067.8277515
1788,0.0
1825,668049339.3357164
2,1, 7,21, 0,11, 0.00,60.00,SummerDesignDay
914,23.999999999999955
954,24.000000000000005
994,24.000000000000015
1034,24.00000000000003
1074,24.000000000000033
1114,24.000000000000015
1154,24.000000000000026
1194,23.999968868256773
1234,23.99999999999967
1274,23.999999998300266
1314,23.999999997723906
1354,24.000000000000019
1394,23.9999999999999
1434,24.00000000000001
1474,23.99999999982211
1514,23.99931618859483
1554,24.000000000000019
1594,24.00000000000006
1634,24.000000000000005
1674,24.000000000000019
2,1, 7,21, 0,12, 0.00,10.00,SummerDesignDay
8,16.92390823520069
10,359230504.70636257
1788,0.0
1825,716229307.140699
2,1, 7,21, 0,12,10.00,20.00,SummerDesignDay
8,16.99340178950456
10,359230504.70636257
1788,0.0
1825,734820067.4216627
2,1, 7,21, 0,12,20.00,30.00,SummerDesignDay
8,17.06272006743463
10,359230504.70636257
1788,0.0
1825,751313311.8791802
2,1, 7,21, 0,12,30.00,40.00,SummerDesignDay
8,17.131853229172639
10,359230504.70636257
1788,0.0
1825,767539792.6214541
2,1, 7,21, 0,12,40.00,50.00,SummerDesignDay
8,17.200807172194087
10,359230504.70636257
1788,0.0
1825,783178155.0336725
2,1, 7,21, 0,12,50.00,60.00,SummerDesignDay
8,17.269582116758607
10,359230504.70636257
1788,0.0
1825,798173941.2916826
2,1, 7,21, 0,12, 0.00,60.00,SummerDesignDay
914,24.000000000000047
954,24.000000000000087
994,24.000000000000019
1034,24.00000000000003
1074,24.000000000000044
1114,24.000000000000019
1154,24.00000000000001
1194,23.999999997698145
1234,24.000000000000015
1274,23.999999999999984
1314,23.99999999999997
1354,24.000000000000069
1394,24.00000000000003
1434,24.000000000000015
1474,24.000000000000019
1514,23.999999849595498
1554,24.000000000000026
1594,24.0
1634,24.0
1674,24.000000000000019
2,1, 7,21, 0,13, 0.00,10.00,SummerDesignDay
8,17.32447360221357
10,359230504.70636257
1788,0.0
1825,834357332.5085394
2,1, 7,21, 0,13,10.00,20.00,SummerDesignDay
8,17.379251291230806
10,359230504.70636257
1788,0.0
1825,847602738.011316
2,1, 7,21, 0,13,20.00,30.00,SummerDesignDay
8,17.433921312061729
10,359230504.70636257
1788,0.0
1825,860089495.8108386
2,1, 7,21, 0,13,30.00,40.00,SummerDesignDay
8,17.488473222557489
10,359230504.70636257
1788,0.0
1825,872124758.005734
2,1, 7,21, 0,13,40.00,50.00,SummerDesignDay
8,17.542913447755134
10,359230504.70636257
1788,0.0
1825,883533359.1642139
2,1, 7,21, 0,13,50.00,60.00,SummerDesignDay
8,17.59724609886134
10,359230504.70636257
1788,0.0
1825,894387818.7824801
2,1, 7,21, 0,13, 0.00,60.00,SummerDesignDay
914,23.99999999999997
954,24.00000000000003
994,24.000000000000019
1034,24.00000000000001
1074,24.000000000000015
1114,24.00000000000001
1154,24.000000000000047
1194,23.999999999999845
1234,24.000000000000026
1274,24.000000000000005
1314,24.000000000000076
1354,24.00000000000009
1394,24.000000000000058
1434,24.00000000000003
1474,24.00000000000003
1514,23.99999999996608
1554,24.00000000000003
1594,23.999999999999987
1634,24.000000000000005
1674,23.999999999999984
2,1, 7,21, 0,14, 0.00,10.00,SummerDesignDay
8,17.6311450462694
10,359230504.70636257
1788,0.0
1825,895314144.7598441
2,1, 7,21, 0,14,10.00,20.00,SummerDesignDay
8,17.665000449016245
10,359230504.70636257
1788,0.0
1825,901867239.4603217
2,1, 7,21, 0,14,20.00,30.00,SummerDesignDay
8,17.698812743128934
10,359230504.70636257
1788,0.0
1825,908431319.194126
2,1, 7,21, 0,14,30.00,40.00,SummerDesignDay
8,17.732582050940107
10,359230504.70636257
1788,0.0
1825,915067687.8618757
2,1, 7,21, 0,14,40.00,50.00,SummerDesignDay
8,17.766307345121004
10,359230504.70636257
1788,0.0
1825,921970193.9691374
2,1, 7,21, 0,14,50.00,60.00,SummerDesignDay
8,17.79999023167558
10,359230504.70636257
1788,0.0
1825,928973754.5111268
2,1, 7,21, 0,14, 0.00,60.00,SummerDesignDay
914,24.00000000000001
954,23.999999999999984
994,24.00000000000004
1034,24.000000000000044
1074,24.00000000000003
1114,24.000000000000015
1154,24.000000000000019
1194,24.000000000000015
1234,24.000000000000019
1274,24.000000000000015
1314,24.00000000000008
1354,24.00000000000006
1394,24.000000000000019
1434,24.000000000000033
1474,23.99999999999999
1514,24.0
1554,24.000000000000019
1594,24.000000000000044
1634,24.000000000000015
1674,24.000000000000019
2,1, 7,21, 0,15, 0.00,10.00,SummerDesignDay
8,17.79999023167558
10,359230504.70636257
1788,0.0
1825,918624309.4298445
2,1, 7,21, 0,15,10.00,20.00,SummerDesignDay
8,17.79999023167558
10,359230504.70636257
1788,0.0
1825,919615704.758879
2,1, 7,21, 0,15,20.00,30.00,SummerDesignDay
8,17.79999023167558
10,359230504.70636257
1788,0.0
1825,920753935.0271453
2,1, 7,21, 0,15,30.00,40.00,SummerDesignDay
8,17.79999023167558
10,359230504.70636257
1788,0.0
1825,921845106.2663789
2,1, 7,21, 0,15,40.00,50.00,SummerDesignDay
8,17.79999023167558
10,359230504.70636257
1788,0.0
1825,922825034.7029513
2,1, 7,21, 0,15,50.00,60.00,SummerDesignDay
8,17.79999023167558
10,359230504.70636257
1788,0.0
1825,923525173.2615339
2,1, 7,21, 0,15, 0.00,60.00,SummerDesignDay
914,24.00000000000003
954,23.99999999999999
994,24.0
1034,24.0
1074,23.999999999999984
1114,24.00000000000003
1154,23.999999999999976
1194,24.00000000000003
1234,24.000000000000026
1274,24.000000000000019
1314,23.99999999999996
1354,24.00000000000008
1394,24.000000000000033
1434,24.000000000000005
1474,24.000000000000044
1514,24.00000000000001
1554,24.000000000000015
1594,24.0
1634,24.000000000000026
1674,24.0
2,1, 7,21, 0,16, 0.00,10.00,SummerDesignDay
8,17.759562446305357
10,359230504.70636257
1788,0.0
1825,899272173.2016205
2,1, 7,21, 0,16,10.00,20.00,SummerDesignDay
8,17.71907809634183
10,359230504.70636257
1788,0.0
1825,891511693.3476648
2,1, 7,21, 0,16,20.00,30.00,SummerDesignDay
8,17.67853788661001
10,359230504.70636257
1788,0.0
1825,883508032.6320344
2,1, 7,21, 0,16,30.00,40.00,SummerDesignDay
8,17.63791796367351
10,359230504.70636257
1788,0.0
1825,875377280.7330535
2,1, 7,21, 0,16,40.00,50.00,SummerDesignDay
8,17.59724609886134
10,359230504.70636257
1788,0.0
1825,867270046.5790877
2,1, 7,21, 0,16,50.00,60.00,SummerDesignDay
8,17.55650676726033
10,359230504.70636257
1788,0.0
1825,859074690.3173628
2,1, 7,21, 0,16, 0.00,60.00,SummerDesignDay
914,24.000000000000033
954,24.000000000000026
994,24.000000000000019
1034,24.0
1074,24.000000000000005
1114,24.00000000000003
1154,24.000000000000005
1194,24.000000000000019
1234,24.00000000000001
1274,24.000000000000015
1314,24.00000000000004
1354,24.000000000000058
1394,24.000000000000015
1434,24.0
1474,24.00000000000003
1514,24.00000000000001
1554,24.000000000000015
1594,24.000000000000015
1634,24.0
1674,24.000000000000044
2,1, 7,21, 0,17, 0.00,10.00,SummerDesignDay
8,17.50209486331892
10,359230504.70636257
1788,0.0
1825,851883391.4135327
2,1, 7,21, 0,17,10.00,20.00,SummerDesignDay
8,17.447570789624618
10,359230504.70636257
1788,0.0
1825,841293251.7875213
2,1, 7,21, 0,17,20.00,30.00,SummerDesignDay
8,17.392929544208135
10,359230504.70636257
1788,0.0
1825,830500539.3006586
2,1, 7,21, 0,17,30.00,40.00,SummerDesignDay
8,17.33818013976614
10,359230504.70636257
1788,0.0
1825,819536436.7483024
2,1, 7,21, 0,17,40.00,50.00,SummerDesignDay
8,17.283317298559309
10,359230504.70636257
1788,0.0
1825,808388988.5628655
2,1, 7,21, 0,17,50.00,60.00,SummerDesignDay
8,17.22833552437677
10,359230504.70636257
1788,0.0
1825,797052421.7257329
2,1, 7,21, 0,17, 0.00,60.00,SummerDesignDay
914,24.000000000000069
954,24.00000000000004
994,23.999999999999998
1034,23.999999999999987
1074,24.000000000000026
1114,24.00000000000003
1154,24.00000000000004
1194,23.999999999999998
1234,24.00000000000003
1274,24.000000000000015
1314,24.000000000000015
1354,23.999999999999998
1394,24.000000000000044
1434,24.000000000000019
1474,24.00000000000001
1514,24.0
1554,24.00000000000003
1594,24.00000000000004
1634,24.000000000000015
1674,23.999999999999984
2,1, 7,21, 0,18, 0.00,10.00,SummerDesignDay
8,17.159453019160176
10,349878357.16842439
1788,0.0
1825,777342762.7751929
2,1, 7,21, 0,18,10.00,20.00,SummerDesignDay
8,17.090391773337136
10,349878357.16842439
1788,0.0
1825,762555051.3932774
2,1, 7,21, 0,18,20.00,30.00,SummerDesignDay
8,17.021151077964786
10,349878357.16842439
1788,0.0
1825,747924780.3430394
2,1, 7,21, 0,18,30.00,40.00,SummerDesignDay
8,16.951729380464653
10,349878357.16842439
1788,0.0
1825,733362718.9857603
2,1, 7,21, 0,18,40.00,50.00,SummerDesignDay
8,16.882126503829249
10,349878357.16842439
1788,0.0
1825,718825570.025797
2,1, 7,21, 0,18,50.00,60.00,SummerDesignDay
8,16.812341807494034
10,349878357.16842439
1788,0.0
1825,704222330.1697818
2,1, 7,21, 0,18, 0.00,60.00,SummerDesignDay
914,24.00000000000004
954,24.00000000000006
994,24.000000000000005
1034,24.000000000000044
1074,24.000000000000026
1114,24.000000000000005
1154,23.999999999999987
1194,24.00000000000001
1234,24.000000000000026
1274,24.000000000000005
1314,23.999999999999987
1354,24.000000000000069
1394,24.000000000000044
1434,24.000000000000058
1474,24.000000000000019
1514,24.0
1554,24.000000000000005
1594,24.00000000000003
1634,23.999999999999976
1674,24.00000000000004
2,1, 7,21, 0,19, 0.00,10.00,SummerDesignDay
8,16.707321072823203
10,295365240.6201187
1788,0.0
1825,655721748.7778921
2,1, 7,21, 0,19,10.00,20.00,SummerDesignDay
8,16.601881826644556
10,295365240.6201187
1788,0.0
1825,633225621.2388246
2,1, 7,21, 0,19,20.00,30.00,SummerDesignDay
8,16.496030555252849
10,295365240.6201187
1788,0.0
1825,612890541.3297855
2,1, 7,21, 0,19,30.00,40.00,SummerDesignDay
8,16.389760181474104
10,295365240.6201187
1788,0.0
1825,592502568.5691207
2,1, 7,21, 0,19,40.00,50.00,SummerDesignDay
8,16.283067654262039
10,295365240.6201187
1788,0.0
1825,572113391.1838824
2,1, 7,21, 0,19,50.00,60.00,SummerDesignDay
8,16.17595057957811
10,295365240.6201187
1788,0.0
1825,550599920.7606617
2,1, 7,21, 0,19, 0.00,60.00,SummerDesignDay
914,23.999999999999987
954,24.000000000000015
994,24.000000000000015
1034,24.000000000000026
1074,24.0
1114,24.000000000000026
1154,24.00000000000004
1194,24.000000000000033
1234,24.000000000000015
1274,24.000000000000015
1314,23.99999999999992
1354,24.000000000000005
1394,23.999999999999969
1434,24.0
1474,24.000000000000026
1514,24.000000000000005
1554,24.0
1594,23.99999999999999
1634,24.000000000000019
1674,24.000000000000015
2,1, 7,21, 0,20, 0.00,10.00,SummerDesignDay
8,16.097123145563505
10,246657658.16197063
1788,0.0
1825,516685141.61756476
2,1, 7,21, 0,20,10.00,20.00,SummerDesignDay
8,16.018070242471564
10,246657658.16197063
1788,0.0
1825,499139620.86193677
2,1, 7,21, 0,20,20.00,30.00,SummerDesignDay
8,15.938779752340516
10,246657658.16197063
1788,0.0
1825,482900612.8680683
2,1, 7,21, 0,20,30.00,40.00,SummerDesignDay
8,15.85926152575189
10,246657658.16197063
1788,0.0
1825,466275717.2446531
2,1, 7,21, 0,20,40.00,50.00,SummerDesignDay
8,15.779503718563929
10,246657658.16197063
1788,0.0