Program Version,EnergyPlus, Version 8.9.0-eba93e8e1b, YMD=2019.03.19 18:42
1,5,Environment Title[],Latitude[deg],Longitude[deg],Time Zone[],Elevation[m]
2,8,Day of Simulation[],Month[],Day of Month[],DST Indicator[1=yes 0=no],Hour[],StartMinute[],EndMinute[],DayType
3,5,Cumulative Day of Simulation[],Month[],Day of Month[],DST Indicator[1=yes 0=no],DayType  ! When Daily Report Variables Requested
4,2,Cumulative Days of Simulation[],Month[]  ! When Monthly Report Variables Requested
5,1,Cumulative Days of Simulation[] ! When Run Period Report Variables Requested
6,1,Calendar Year of Simulation[] ! When Annual Report Variables Requested
7,9,Environment,Site Outdoor Air Drybulb Temperature [C] !Monthly [Value,Min,Day,Hour,Minute,Max,Day,Hour,Minute]
8,1,Environment,Site Outdoor Air Wetbulb Temperature [C] !TimeStep
849,1,PENITENTIARY - DINING-SPACE FUNCTION ZN,Zone Air Temperature [C] !Hourly
850,7,PENITENTIARY - DINING-SPACE FUNCTION ZN,Zone Air Relative Humidity [%] !Daily [Value,Min,Hour,Minute,Max,Hour,Minute]
889,1,POST OFFICE SORTING-SPACE FUNCTION ZN,Zone Air Temperature [C] !Hourly
890,7,POST OFFICE SORTING-SPACE FUNCTION ZN,Zone Air Relative Humidity [%] !Daily [Value,Min,Hour,Minute,Max,Hour,Minute]
929,1,RELIGIOUS - AUDIENCE-SPACE FUNCTION ZN,Zone Air Temperature [C] !Hourly
930,7,RELIGIOUS - AUDIENCE-SPACE FUNCTION ZN,Zone Air Relative Humidity [%] !Daily [Value,Min,Hour,Minute,Max,Hour,Minute]
969,1,RELIGIOUS - FELLOWSHIP HALL-SPACE FUNCTION ZN,Zone Air Temperature [C] !Hourly
970,7,RELIGIOUS - FELLOWSHIP HALL-SPACE FUNCTION ZN,Zone Air Relative Humidity [%] !Daily [Value,Min,Hour,Minute,Max,Hour,Minute]
1009,1,RELIGIOUS - PULPIT/CHOIR-SPACE FUNCTION ZN,Zone Air Temperature [C] !Hourly
1010,7,RELIGIOUS - PULPIT/CHOIR-SPACE FUNCTION ZN,Zone Air Relative Humidity [%] !Daily [Value,Min,Hour,Minute,Max,Hour,Minute]
1049,1,RETAIL - DRESSING/FITTING-SPACE FUNCTION ZN,Zone Air Temperature [C] !Hourly
1050,7,RETAIL - DRESSING/FITTING-SPACE FUNCTION ZN,Zone Air Relative Humidity [%] !Daily [Value,Min,Hour,Minute,Max,Hour,Minute]
1089,1,RETAIL - MALL CONCOURSE-SPACE FUNCTION ZN,Zone Air Temperature [C] !Hourly
1090,7,RETAIL - MALL CONCOURSE-SPACE FUNCTION ZN,Zone Air Relative Humidity [%] !Daily [Value,Min,Hour,Minute,Max,Hour,Minute]
1129,1,RETAIL - SALES-SPACE FUNCTION ZN,Zone Air Temperature [C] !Hourly
1130,7,RETAIL - SALES-SPACE FUNCTION ZN,Zone Air Relative Humidity [%] !Daily [Value,Min,Hour,Minute,Max,Hour,Minute]
1169,1,SALES AREA-SPACE FUNCTION ZN,Zone Air Temperature [C] !Hourly
1170,7,SALES AREA-SPACE FUNCTION ZN,Zone Air Relative Humidity [%] !Daily [Value,Min,Hour,Minute,Max,Hour,Minute]
1209,1,SPORTS ARENA - AUDIENCE-SPACE FUNCTION ZN,Zone Air Temperature [C] !Hourly
1210,7,SPORTS ARENA - AUDIENCE-SPACE FUNCTION ZN,Zone Air Relative Humidity [%] !Daily [Value,Min,Hour,Minute,Max,Hour,Minute]
1249,1,SPORTS ARENA - COURT C1-SPACE FUNCTION ZN,Zone Air Temperature [C] !Hourly
1250,7,SPORTS ARENA - COURT C1-SPACE FUNCTION ZN,Zone Air Relative Humidity [%] !Daily [Value,Min,Hour,Minute,Max,Hour,Minute]
1289,1,SPORTS ARENA - COURT C2-SPACE FUNCTION ZN,Zone Air Temperature [C] !Hourly
1290,7,SPORTS ARENA - COURT C2-SPACE FUNCTION ZN,Zone Air Relative Humidity [%] !Daily [Value,Min,Hour,Minute,Max,Hour,Minute]
1329,1,SPORTS ARENA - COURT C3-SPACE FUNCTION ZN,Zone Air Temperature [C] !Hourly
1330,7,SPORTS ARENA - COURT C3-SPACE FUNCTION ZN,Zone Air Relative Humidity [%] !Daily [Value,Min,Hour,Minute,Max,Hour,Minute]
1369,1,SPORTS ARENA - COURT C4-SPACE FUNCTION ZN,Zone Air Temperature [C] !Hourly
1370,7,SPORTS ARENA - COURT C4-SPACE FUNCTION ZN,Zone Air Relative Humidity [%] !Daily [Value,Min,Hour,Minute,Max,Hour,Minute]
1409,1,SPORTS ARENA - RING-SPACE FUNCTION ZN,Zone Air Temperature [C] !Hourly
1410,7,SPORTS ARENA - RING-SPACE FUNCTION ZN,Zone Air Relative Humidity [%] !Daily [Value,Min,Hour,Minute,Max,Hour,Minute]
1449,1,STAIRWAY-SCH-A-SPACE FUNCTION ZN,Zone Air Temperature [C] !Hourly
1450,7,STAIRWAY-SCH-A-SPACE FUNCTION ZN,Zone Air Relative Humidity [%] !Daily [Value,Min,Hour,Minute,Max,Hour,Minute]
1489,1,STAIRWAY-SCH-B-SPACE FUNCTION ZN,Zone Air Temperature [C] !Hourly
1490,7,STAIRWAY-SCH-B-SPACE FUNCTION ZN,Zone Air Relative Humidity [%] !Daily [Value,Min,Hour,Minute,Max,Hour,Minute]
1529,1,STAIRWAY-SCH-C-SPACE FUNCTION ZN,Zone Air Temperature [C] !Hourly
1530,7,STAIRWAY-SCH-C-SPACE FUNCTION ZN,Zone Air Relative Humidity [%] !Daily [Value,Min,Hour,Minute,Max,Hour,Minute]
1569,1,STAIRWAY-SCH-D-SPACE FUNCTION ZN,Zone Air Temperature [C] !Hourly
1570,7,STAIRWAY-SCH-D-SPACE FUNCTION ZN,Zone Air Relative Humidity [%] !Daily [Value,Min,Hour,Minute,Max,Hour,Minute]
1609,1,STAIRWAY-SCH-E-SPACE FUNCTION ZN,Zone Air Temperature [C] !Hourly
1610,7,STAIRWAY-SCH-E-SPACE FUNCTION ZN,Zone Air Relative Humidity [%] !Daily [Value,Min,Hour,Minute,Max,Hour,Minute]
10,1,Electricity:Facility [J] !TimeStep
1760,1,DistrictCooling:Facility [J] !TimeStep
1723,1,DistrictHeating:Facility [J] !TimeStep
End of Data Dictionary
1,FORT MCMURRAY AP ANN CLG .4% CONDNS DB=>MWB,  56.65,-111.22,  -7.00, 369.10
2,1, 7,21, 0, 1, 0.00,10.00,SummerDesignDay
8,14.218136923962174
10,172095067.69872654
1723,0.0
1760,88995246.37864073
2,1, 7,21, 0, 1,10.00,20.00,SummerDesignDay
8,14.171982153293495
10,172095067.69872654
1723,1349008.0064902516
1760,86970691.35400066
2,1, 7,21, 0, 1,20.00,30.00,SummerDesignDay
8,14.125744780286427
10,172095067.69872654
1723,2959388.5490165057
1760,85025100.8931797
2,1, 7,21, 0, 1,30.00,40.00,SummerDesignDay
8,14.079436086331978
10,172095067.69872654
1723,6294508.375085214
1760,83141907.40836102
2,1, 7,21, 0, 1,40.00,50.00,SummerDesignDay
8,14.033050387896898
10,172095067.69872654
1723,8269796.727495108
1760,81316090.94810455
2,1, 7,21, 0, 1,50.00,60.00,SummerDesignDay
8,13.986581233564835
10,172095067.69872654
1723,10650295.2456532
1760,79491688.51168137
2,1, 7,21, 0, 1, 0.00,60.00,SummerDesignDay
849,22.07569345274605
889,23.40879146252956
929,22.597699117552137
969,20.674149103767478
1009,23.398502690616913
1049,23.438158035007747
1089,22.817143104233634
1129,24.16955761692593
1169,23.672038949423024
1209,22.02372179799093
1249,24.000000000000033
1289,24.0
1329,23.999999999999987
1369,24.000000000000026
1409,23.999999999999976
1449,24.09285247067397
1489,24.0
1529,25.293945070124506
1569,23.948060135810779
1609,24.541155492650196
2,1, 7,21, 0, 2, 0.00,10.00,SummerDesignDay
8,13.95555882260429
10,90113250.01009113
1723,21882250.199050074
1760,0.0
2,1, 7,21, 0, 2,10.00,20.00,SummerDesignDay
8,13.924507755336454
10,90113250.01009113
1723,24226089.60915921
1760,0.0
2,1, 7,21, 0, 2,20.00,30.00,SummerDesignDay
8,13.893416042989206
10,90113250.01009113
1723,25964169.008677849
1760,0.0
2,1, 7,21, 0, 2,30.00,40.00,SummerDesignDay
8,13.862289589689029
10,90113250.01009113
1723,27694841.968720929
1760,0.0
2,1, 7,21, 0, 2,40.00,50.00,SummerDesignDay
8,13.831134407608739
10,90113250.01009113
1723,29384874.840286808
1760,0.0
2,1, 7,21, 0, 2,50.00,60.00,SummerDesignDay
8,13.799938415548118
10,90113250.01009113
1723,31045011.4074623
1760,0.0
2,1, 7,21, 0, 2, 0.00,60.00,SummerDesignDay
849,22.000000423607973
889,22.94094245868405
929,21.067502127734707
969,20.128994998703769
1009,22.459911224612229
1049,23.10719835071284
1089,22.478905192131895
1129,23.844495647675644
1169,23.415901374224477
1209,22.00000021723592
1249,25.003047182963259
1289,24.781994259703198
1329,23.709248144498745
1369,23.422124959621006
1409,24.866461472151174
1449,23.98584911279708
1489,24.315887221560997
1529,25.168433094487445
1569,23.58969265142829
1609,24.43803819661605
2,1, 7,21, 0, 3, 0.00,10.00,SummerDesignDay
8,13.776521671948676
10,26558778.95833656
1723,0.0
1760,0.0
2,1, 7,21, 0, 3,10.00,20.00,SummerDesignDay
8,13.753085235778466
10,26558778.95833656
1723,0.0
1760,0.0
2,1, 7,21, 0, 3,20.00,30.00,SummerDesignDay
8,13.729636002354969
10,26558778.95833656
1723,0.0
1760,0.0
2,1, 7,21, 0, 3,30.00,40.00,SummerDesignDay
8,13.706147375533054
10,26558778.95833656
1723,0.0
1760,0.0
2,1, 7,21, 0, 3,40.00,50.00,SummerDesignDay
8,13.682651961920304
10,26558778.95833656
1723,0.0
1760,0.0
2,1, 7,21, 0, 3,50.00,60.00,SummerDesignDay
8,13.659136670643687
10,26558778.95833656
1723,0.0
1760,0.0
2,1, 7,21, 0, 3, 0.00,60.00,SummerDesignDay
849,20.358089081473865
889,22.551063364426509
929,20.340546211698898
969,19.708548032321635
1009,21.980901450273995
1049,22.82528418357818
1089,22.204217182968138
1129,23.575016176082447
1169,23.208513754411496
1209,20.73540250946951
1249,24.182683582947339
1289,24.211430598652929
1329,22.957767769003003
1369,22.749563874943886
1409,24.125255793840869
1449,23.89077913169751
1489,24.19318968345492
1529,25.04741173364222
1569,23.2501259772923
1609,24.340901614108348
2,1, 7,21, 0, 4, 0.00,10.00,SummerDesignDay
8,13.63560137410855
10,26558778.95833656
1723,0.0
1760,0.0
2,1, 7,21, 0, 4,10.00,20.00,SummerDesignDay
8,13.612040802606578
10,26558778.95833656
1723,0.0
1760,0.0
2,1, 7,21, 0, 4,20.00,30.00,SummerDesignDay
8,13.58846620506876
10,26558778.95833656
1723,0.0
1760,0.0
2,1, 7,21, 0, 4,30.00,40.00,SummerDesignDay
8,13.56487178447336
10,26558778.95833656
1723,0.0
1760,0.0
2,1, 7,21, 0, 4,40.00,50.00,SummerDesignDay
8,13.541257354069103
10,26558778.95833656
1723,0.0
1760,0.0
2,1, 7,21, 0, 4,50.00,60.00,SummerDesignDay
8,13.517617463812285
10,26558778.95833656
1723,0.0
1760,0.0
2,1, 7,21, 0, 4, 0.00,60.00,SummerDesignDay
849,19.456388405275804
889,22.150326975038995
929,19.856524744113619
969,19.31030447484604
1009,21.58507338380375
1049,22.51825471279359
1089,21.90675474169848
1129,23.29252763463336
1169,22.97863907893428
1209,20.179296254591738
1249,23.49081661995909
1289,23.695471985158993
1329,22.475677760479458
1369,22.34893076421155
1409,23.507681056338709
1449,23.76273459646752
1489,23.92138247311941
1529,24.881740323915666
1569,22.842182501559795
1609,24.211906106669518
2,1, 7,21, 0, 5, 0.00,10.00,SummerDesignDay
8,13.50185415824011
10,26558778.95833656
1723,0.0
1760,0.0
2,1, 7,21, 0, 5,10.00,20.00,SummerDesignDay
8,13.486076034032447
10,26558778.95833656
1723,0.0
1760,0.0
2,1, 7,21, 0, 5,20.00,30.00,SummerDesignDay
8,13.470289340350983
10,26558778.95833656
1723,0.0
1760,0.0
2,1, 7,21, 0, 5,30.00,40.00,SummerDesignDay
8,13.454493322631063
10,26558778.95833656
1723,0.0
1760,0.0
2,1, 7,21, 0, 5,40.00,50.00,SummerDesignDay
8,13.438688835118548
10,26558778.95833656
1723,0.0
1760,0.0
2,1, 7,21, 0, 5,50.00,60.00,SummerDesignDay
8,13.422888173889437
10,26558778.95833656
1723,0.0
1760,0.0
2,1, 7,21, 0, 5, 0.00,60.00,SummerDesignDay
849,19.134722692076829
889,21.883947002655949
929,19.694849512854064
969,19.129026525849306
1009,21.32849784200563
1049,22.306129066659428
1089,21.635827604075918
1129,23.049723802966964
1169,22.767967135423637
1209,19.85544187360976
1249,23.196091924880027
1289,23.511913712531
1329,22.239039329854564
1369,22.1826671062295
1409,23.204535107059937
1449,23.641560543941325
1489,23.789597623640593
1529,24.727674320387963
1569,22.53260514247849
1609,24.094131994275516
2,1, 7,21, 0, 6, 0.00,10.00,SummerDesignDay
8,13.438688835118548
10,26558778.95833656
1723,0.0
1760,0.0
2,1, 7,21, 0, 6,10.00,20.00,SummerDesignDay
8,13.454493322631063
10,26558778.95833656
1723,0.0
1760,0.0
2,1, 7,21, 0, 6,20.00,30.00,SummerDesignDay
8,13.470289340350983
10,26558778.95833656
1723,0.0
1760,0.0
2,1, 7,21, 0, 6,30.00,40.00,SummerDesignDay
8,13.486076034032447
10,26558778.95833656
1723,0.0
1760,0.0
2,1, 7,21, 0, 6,40.00,50.00,SummerDesignDay
8,13.50185415824011
10,26558778.95833656
1723,0.0
1760,0.0
2,1, 7,21, 0, 6,50.00,60.00,SummerDesignDay
8,13.517617463812285
10,26558778.95833656
1723,0.0
1760,0.0
2,1, 7,21, 0, 6, 0.00,60.00,SummerDesignDay
849,19.139035539187579
889,21.94862830594508
929,20.331785980330435
969,19.31574664337671
1009,21.47268037632791
1049,22.231697536391754
1089,21.46959840297565
1129,22.90257951142996
1169,22.628016955080836
1209,19.728037501973256
1249,23.0208388229927
1289,23.746865010632577
1329,22.105441697825144
1369,22.159661053750584
1409,23.017700287442989
1449,23.553015007311413
1489,23.708129489307109
1529,24.623160862228717
1569,22.539714449388645
1609,24.008718073626644
2,1, 7,21, 0, 7, 0.00,10.00,SummerDesignDay
8,13.572736920571789
10,26558778.95833656
1723,0.0
1760,0.0
2,1, 7,21, 0, 7,10.00,20.00,SummerDesignDay
8,13.627748229152554
10,26558778.95833656
1723,0.0
1760,0.0
2,1, 7,21, 0, 7,20.00,30.00,SummerDesignDay
8,13.682651961920304
10,26558778.95833656
1723,0.0
1760,0.0
2,1, 7,21, 0, 7,30.00,40.00,SummerDesignDay
8,13.737448093244995
10,26558778.95833656
1723,0.0
1760,0.0
2,1, 7,21, 0, 7,40.00,50.00,SummerDesignDay
8,13.792137011831216
10,26558778.95833656
1723,0.0
1760,0.0
2,1, 7,21, 0, 7,50.00,60.00,SummerDesignDay
8,13.846719282840333
10,26558778.95833656
1723,0.0
1760,0.0
2,1, 7,21, 0, 7, 0.00,60.00,SummerDesignDay
849,19.597175924310244
889,22.392401155631135
929,21.344441091922847
969,19.706633667068457
1009,21.892414148006084
1049,22.185467662073987
1089,21.511706536633228
1129,22.92370857425298
1169,22.63862797450628
1209,19.950663175147278
1249,23.053088870356235
1289,24.15097151130639
1329,22.15482390131119
1369,22.1791368137891
1409,23.009121604546406
1449,23.529275341685467
1489,23.690008806106467
1529,24.587965209503378
1569,22.881606967752036
1609,23.98162184483073
2,1, 7,21, 0, 8, 0.00,10.00,SummerDesignDay
8,13.978831900527043
10,32324355.973025755
1723,0.0
1760,12332796.422571285
2,1, 7,21, 0, 8,10.00,20.00,SummerDesignDay
8,14.110321014287419
10,32324355.973025755
1723,0.0
1760,1194723.3142645835
2,1, 7,21, 0, 8,20.00,30.00,SummerDesignDay
8,14.241191509616986
10,32324355.973025755
1723,0.0
1760,5525639.729628924
2,1, 7,21, 0, 8,30.00,40.00,SummerDesignDay
8,14.371447531304272
10,32324355.973025755
1723,0.0
1760,7343176.477709248
2,1, 7,21, 0, 8,40.00,50.00,SummerDesignDay
8,14.501093766564925
10,32324355.973025755
1723,0.0
1760,15084000.777132614
2,1, 7,21, 0, 8,50.00,60.00,SummerDesignDay
8,14.630134792273804
10,32324355.973025755
1723,0.0
1760,19198167.536568684
2,1, 7,21, 0, 8, 0.00,60.00,SummerDesignDay
849,20.795171938212808
889,23.644934302893856
929,22.85620467080119
969,20.85032520078558
1009,22.68605716483903
1049,22.439337539851466
1089,21.89838600039842
1129,23.218890492340568
1169,22.901542432793524
1209,20.763855618661699
1249,23.403426257053554
1289,24.714939562023145
1329,22.502752065530389
1369,22.511455844263606
1409,23.293493838160207
1449,23.76721669582783
1489,23.77274438410807
1529,23.971397829393067
1569,23.685022138111895
1609,23.99885115699945
2,1, 7,21, 0, 9, 0.00,10.00,SummerDesignDay
8,14.773641492809972
10,95144208.13691892
1723,4377368.216440103
1760,60846393.65598284
2,1, 7,21, 0, 9,10.00,20.00,SummerDesignDay
8,14.91640948124148
10,95144208.13691892
1723,0.0
1760,59013883.16762811
2,1, 7,21, 0, 9,20.00,30.00,SummerDesignDay
8,15.05843890714102
10,95144208.13691892
1723,0.0
1760,77140434.99510132
2,1, 7,21, 0, 9,30.00,40.00,SummerDesignDay
8,15.199735893563798
10,95144208.13691892
1723,0.0
1760,85074866.32304755
2,1, 7,21, 0, 9,40.00,50.00,SummerDesignDay
8,15.340306256439395
10,95144208.13691892
1723,0.0
1760,96879544.3002488
2,1, 7,21, 0, 9,50.00,60.00,SummerDesignDay
8,15.48015101768072
10,95144208.13691892
1723,0.0
1760,112135614.62466374
2,1, 7,21, 0, 9, 0.00,60.00,SummerDesignDay
849,22.666636205593666
889,23.999999979325236
929,24.808804800681686
969,23.15466762729558
1009,23.815388053572947
1049,23.35337130050242
1089,22.995301298937237
1129,23.935400576754775
1169,23.827615524165876
1209,22.108300696930518
1249,23.91869375149578
1289,23.984151581197094
1329,23.15542142340456
1369,23.15813165476709
1409,23.830198770456204
1449,23.99728563471237
1489,23.947039614090199
1529,23.99999999999984
1569,23.999999995474416
1609,24.000000000000005
2,1, 7,21, 0,10, 0.00,10.00,SummerDesignDay
8,15.60467292907716
10,207872769.92149566
1723,0.0
1760,189073954.75533209
2,1, 7,21, 0,10,10.00,20.00,SummerDesignDay
8,15.72862731650033
10,207872769.92149566
1723,0.0
1760,233073165.44442434
2,1, 7,21, 0,10,20.00,30.00,SummerDesignDay
8,15.852017409284228
10,207872769.92149566
1723,0.0
1760,256399061.65563569
2,1, 7,21, 0,10,30.00,40.00,SummerDesignDay
8,15.974848118364367
10,207872769.92149566
1723,0.0
1760,277653937.59339317
2,1, 7,21, 0,10,40.00,50.00,SummerDesignDay
8,16.097123145563505
10,207872769.92149566
1723,0.0
1760,306917947.52088657
2,1, 7,21, 0,10,50.00,60.00,SummerDesignDay
8,16.218846351168599
10,207872769.92149566
1723,0.0
1760,331311187.48216089
2,1, 7,21, 0,10, 0.00,60.00,SummerDesignDay
849,23.995139458653488
889,23.999999999999984
929,26.766214794198065
969,23.99984962062275
1009,25.036174123451958
1049,23.99938497093886
1089,23.975716339814914
1129,23.999999999886027
1169,23.999999998562516
1209,23.682600555514076
1249,23.99999999613946
1289,23.999999999990704
1329,23.97419449206313
1369,23.964323529662406
1409,23.999999765679865
1449,24.000000000000005
1489,23.999999999614137
1529,24.000000000000005
1569,24.00000000000003
1609,24.000000000000015
2,1, 7,21, 0,11, 0.00,10.00,SummerDesignDay
8,16.325793027093189
10,241869986.9700443
1723,0.0
1760,388718784.6461862
2,1, 7,21, 0,11,10.00,20.00,SummerDesignDay
8,16.432322158488288
10,241869986.9700443
1723,0.0
1760,412501705.42073747
2,1, 7,21, 0,11,20.00,30.00,SummerDesignDay
8,16.538424180249178
10,241869986.9700443
1723,0.0
1760,434345194.54904159
2,1, 7,21, 0,11,30.00,40.00,SummerDesignDay
8,16.644108396469087
10,241869986.9700443
1723,0.0
1760,454609576.68508669
2,1, 7,21, 0,11,40.00,50.00,SummerDesignDay
8,16.749376736593655
10,241869986.9700443
1723,0.0
1760,474115879.8332373
2,1, 7,21, 0,11,50.00,60.00,SummerDesignDay
8,16.854232613237156
10,241869986.9700443
1723,0.0
1760,493374094.7148712
2,1, 7,21, 0,11, 0.00,60.00,SummerDesignDay
849,23.999999976603278
889,23.999999999999948
929,28.10666547906229
969,23.999999999563447
1009,26.027207291756964
1049,23.99999999999545
1089,23.999999996728833
1129,24.00000000000004
1169,24.00000000000001
1209,23.999390582187514
1249,24.00000000000003
1289,24.000000000000015
1329,23.999999999066945
1369,23.999999998688794
1409,23.999999999999998
1449,24.0
1489,24.000000000000015
1529,24.000000000000033
1569,24.00000000000003
1609,24.00000000000001
2,1, 7,21, 0,12, 0.00,10.00,SummerDesignDay
8,16.92390823520069
10,273647222.49592158
1723,0.0
1760,547747434.3745028
2,1, 7,21, 0,12,10.00,20.00,SummerDesignDay
8,16.99340178950456
10,273647222.49592158
1723,0.0
1760,563789532.9128445
2,1, 7,21, 0,12,20.00,30.00,SummerDesignDay
8,17.06272006743463
10,273647222.49592158
1723,0.0
1760,577894449.2205287
2,1, 7,21, 0,12,30.00,40.00,SummerDesignDay
8,17.131853229172639
10,273647222.49592158
1723,0.0
1760,591774137.2249831
2,1, 7,21, 0,12,40.00,50.00,SummerDesignDay
8,17.200807172194087
10,273647222.49592158
1723,0.0
1760,605307172.0941523
2,1, 7,21, 0,12,50.00,60.00,SummerDesignDay
8,17.269582116758607
10,273647222.49592158
1723,0.0
1760,618513286.8721722
2,1, 7,21, 0,12, 0.00,60.00,SummerDesignDay
849,23.99999999999884
889,24.000000000000076
929,29.014292329082548
969,23.999999999999948
1009,26.85972458733488
1049,24.0
1089,23.999999999999998
1129,23.999999999999998
1169,24.000000000000019
1209,23.999999550501106
1249,24.000000000000033
1289,23.999999999999987
1329,24.00000000000004
1369,23.999999999999984
1409,24.00000000000003
1449,24.000000000000005
1489,24.00000000000001
1529,24.000000000000015
1569,24.000000000000005
1609,24.00000000000001
2,1, 7,21, 0,13, 0.00,10.00,SummerDesignDay
8,17.32447360221357
10,273647222.49592158
1723,0.0
1760,669466434.2859539
2,1, 7,21, 0,13,10.00,20.00,SummerDesignDay
8,17.379251291230806
10,273647222.49592158
1723,0.0
1760,681645661.8094746
2,1, 7,21, 0,13,20.00,30.00,SummerDesignDay
8,17.433921312061729
10,273647222.49592158
1723,0.0
1760,693022369.5529857
2,1, 7,21, 0,13,30.00,40.00,SummerDesignDay
8,17.488473222557489
10,273647222.49592158
1723,0.0
1760,703691820.6489878
2,1, 7,21, 0,13,40.00,50.00,SummerDesignDay
8,17.542913447755134
10,273647222.49592158
1723,0.0
1760,713762446.3363186
2,1, 7,21, 0,13,50.00,60.00,SummerDesignDay
8,17.59724609886134
10,273647222.49592158
1723,0.0
1760,723388796.5857265
2,1, 7,21, 0,13, 0.00,60.00,SummerDesignDay
849,23.999999999999976
889,24.00000000000001
929,29.80847622509913
969,24.00000000000004
1009,27.65878806653839
1049,24.000000000000019
1089,24.0
1129,23.999999999999998
1169,24.000000000000019
1209,23.999999999685575
1249,24.00000000000004
1289,24.0
1329,24.00000000000003
1369,24.000000000000058
1409,24.000000000000058
1449,24.000000000000005
1489,24.000000000000005
1529,24.00000000000003
1569,24.000000000000033
1609,24.000000000000005
2,1, 7,21, 0,14, 0.00,10.00,SummerDesignDay
8,17.6311450462694
10,273647222.49592158
1723,0.0
1760,720856037.2554973
2,1, 7,21, 0,14,10.00,20.00,SummerDesignDay
8,17.665000449016245
10,273647222.49592158
1723,0.0
1760,726911823.5460981
2,1, 7,21, 0,14,20.00,30.00,SummerDesignDay
8,17.698812743128934
10,273647222.49592158
1723,0.0
1760,732989790.929148
2,1, 7,21, 0,14,30.00,40.00,SummerDesignDay
8,17.732582050940107
10,273647222.49592158
1723,0.0
1760,739087246.1161693
2,1, 7,21, 0,14,40.00,50.00,SummerDesignDay
8,17.766307345121004
10,273647222.49592158
1723,0.0
1760,745255596.996488
2,1, 7,21, 0,14,50.00,60.00,SummerDesignDay
8,17.79999023167558
10,273647222.49592158
1723,0.0
1760,751492284.306535
2,1, 7,21, 0,14, 0.00,60.00,SummerDesignDay
849,24.000000000000044
889,24.00000000000006
929,30.43277752551589
969,24.000000000000005
1009,28.317558106286574
1049,24.000000000000019
1089,24.000000000000026
1129,24.000000000000047
1169,24.00000000000001
1209,23.99999999999977
1249,24.000000000000026
1289,24.000000000000058
1329,24.000000000000055
1369,24.000000000000026
1409,24.000000000000019
1449,24.000000000000015
1489,24.000000000000005
1529,23.99999999999999
1569,24.00000000000007
1609,24.000000000000005
2,1, 7,21, 0,15, 0.00,10.00,SummerDesignDay
8,17.79999023167558
10,273647222.49592158
1723,0.0
1760,986754881.87809
2,1, 7,21, 0,15,10.00,20.00,SummerDesignDay
8,17.79999023167558
10,273647222.49592158
1723,0.0
1760,728373018.2156425
2,1, 7,21, 0,15,20.00,30.00,SummerDesignDay
8,17.79999023167558
10,273647222.49592158
1723,0.0
1760,859049558.7173402
2,1, 7,21, 0,15,30.00,40.00,SummerDesignDay
8,17.79999023167558
10,273647222.49592158
1723,0.0
1760,850979420.9999336
2,1, 7,21, 0,15,40.00,50.00,SummerDesignDay
8,17.79999023167558
10,273647222.49592158
1723,0.0
1760,844412562.9477197
2,1, 7,21, 0,15,50.00,60.00,SummerDesignDay
8,17.79999023167558
10,273647222.49592158
1723,0.0
1760,844914320.7576952
2,1, 7,21, 0,15, 0.00,60.00,SummerDesignDay
849,24.000000000000019
889,24.000000000000058
929,23.9595025608443
969,24.000000000000026
1009,23.8911449696491
1049,24.00000000000003
1089,24.000000000000005
1129,24.000000000000005
1169,24.000000000000005
1209,24.000000000000026
1249,24.00000000000004
1289,24.000000000000019
1329,24.000000000000026
1369,24.000000000000026
1409,24.000000000000069
1449,24.000000000000005
1489,24.000000000000005
1529,24.000000000000026
1569,24.000000000000019
1609,24.00000000000001
2,1, 7,21, 0,16, 0.00,10.00,SummerDesignDay
8,17.759562446305357
10,292299567.26068928
1723,0.0
1760,822779057.9491156
2,1, 7,21, 0,16,10.00,20.00,SummerDesignDay
8,17.71907809634183
10,292299567.26068928
1723,0.0
1760,816190858.8191463
2,1, 7,21, 0,16,20.00,30.00,SummerDesignDay
8,17.67853788661001
10,292299567.26068928
1723,0.0
1760,808592943.6559097
2,1, 7,21, 0,16,30.00,40.00,SummerDesignDay
8,17.63791796367351
10,292299567.26068928
1723,0.0
1760,800702147.8458482
2,1, 7,21, 0,16,40.00,50.00,SummerDesignDay
8,17.59724609886134
10,292299567.26068928
1723,0.0
1760,792608739.8523318
2,1, 7,21, 0,16,50.00,60.00,SummerDesignDay
8,17.55650676726033
10,292299567.26068928
1723,0.0
1760,784335513.4339886
2,1, 7,21, 0,16, 0.00,60.00,SummerDesignDay
849,24.00000000000001
889,24.0
929,23.9999995972051
969,24.00000000000004
1009,23.999998882883764
1049,24.000000000000019
1089,24.00000000000001
1129,24.000000000000026
1169,24.000000000000044
1209,24.000000000000019
1249,24.000000000000033
1289,23.999999999999987
1329,24.00000000000001
1369,24.0
1409,24.000000000000026
1449,24.00000000000001
1489,24.0
1529,24.00000000000001
1569,24.000000000000026
1609,24.000000000000015
2,1, 7,21, 0,17, 0.00,10.00,SummerDesignDay
8,17.50209486331892
10,290634581.1186857
1723,0.0
1760,774956217.2546617
2,1, 7,21, 0,17,10.00,20.00,SummerDesignDay
8,17.447570789624618
10,290634581.1186857
1723,0.0
1760,764135370.7655358
2,1, 7,21, 0,17,20.00,30.00,SummerDesignDay
8,17.392929544208135
10,290634581.1186857
1723,0.0
1760,753245075.6193476
2,1, 7,21, 0,17,30.00,40.00,SummerDesignDay
8,17.33818013976614
10,290634581.1186857
1723,0.0
1760,742225359.8249379
2,1, 7,21, 0,17,40.00,50.00,SummerDesignDay
8,17.283317298559309
10,290634581.1186857
1723,0.0
1760,730776361.522793
2,1, 7,21, 0,17,50.00,60.00,SummerDesignDay
8,17.22833552437677
10,290634581.1186857
1723,0.0
1760,719046775.8626921
2,1, 7,21, 0,17, 0.00,60.00,SummerDesignDay
849,24.00000000000003
889,24.000000000000019
929,23.999999999987904
969,23.99999999999996
1009,23.999999999958729
1049,24.000000000000026
1089,24.0
1129,24.00000000000003
1169,24.000000000000019
1209,24.00000000000001
1249,24.00000000000004
1289,24.000000000000033
1329,24.000000000000026
1369,24.000000000000015
1409,24.00000000000006
1449,24.00000000000001
1489,23.999999999999998
1529,24.00000000000001
1569,23.99999999999999
1609,24.000000000000019
2,1, 7,21, 0,18, 0.00,10.00,SummerDesignDay
8,17.159453019160176
10,287000861.3619103
1723,0.0
1760,708516298.9057163
2,1, 7,21, 0,18,10.00,20.00,SummerDesignDay
8,17.090391773337136
10,287000861.3619103
1723,0.0
1760,694015156.2836182
2,1, 7,21, 0,18,20.00,30.00,SummerDesignDay
8,17.021151077964786
10,287000861.3619103
1723,0.0
1760,679499459.1077516
2,1, 7,21, 0,18,30.00,40.00,SummerDesignDay
8,16.951729380464653
10,287000861.3619103
1723,0.0
1760,665021937.1976435
2,1, 7,21, 0,18,40.00,50.00,SummerDesignDay
8,16.882126503829249
10,287000861.3619103
1723,0.0
1760,650516198.8362005
2,1, 7,21, 0,18,50.00,60.00,SummerDesignDay
8,16.812341807494034
10,287000861.3619103
1723,0.0
1760,635874936.2606564
2,1, 7,21, 0,18, 0.00,60.00,SummerDesignDay
849,24.000000000000026
889,24.000000000000019
929,24.000000000000005
969,24.00000000000003
1009,23.99999999999999
1049,24.000000000000019
1089,24.000000000000026
1129,23.999999999999959
1169,24.000000000000019
1209,23.999999999999987
1249,23.999999999999984
1289,24.00000000000003
1329,23.999999999999998
1369,23.999999999999987
1409,24.0
1449,24.0
1489,24.000000000000015
1529,24.00000000000003
1569,24.00000000000003
1609,24.000000000000015
2,1, 7,21, 0,19, 0.00,10.00,SummerDesignDay
8,16.707321072823203
10,285804621.3251203
1723,0.0
1760,642096612.4432778
2,1, 7,21, 0,19,10.00,20.00,SummerDesignDay
8,16.601881826644556
10,285804621.3251203
1723,0.0
1760,622047418.163201
2,1, 7,21, 0,19,20.00,30.00,SummerDesignDay
8,16.496030555252849
10,285804621.3251203
1723,0.0
1760,601031565.6413019
2,1, 7,21, 0,19,30.00,40.00,SummerDesignDay
8,16.389760181474104
10,285804621.3251203
1723,0.0
1760,579905852.2119551
2,1, 7,21, 0,19,40.00,50.00,SummerDesignDay
8,16.283067654262039
10,285804621.3251203
1723,0.0
1760,558572386.3889937
2,1, 7,21, 0,19,50.00,60.00,SummerDesignDay
8,16.17595057957811
10,285804621.3251203
1723,0.0
1760,536813306.83823427
2,1, 7,21, 0,19, 0.00,60.00,SummerDesignDay
849,23.999999999999987
889,24.000000000000015
929,24.0
969,23.99999999999999
1009,24.0
1049,24.000000000000026
1089,24.0
1129,24.000000000000087
1169,24.000000000000026
1209,24.000000000000026
1249,24.00000000000004
1289,24.000000000000033
1329,24.00000000000004
1369,24.0
1409,24.00000000000007
1449,24.00000000000001
1489,24.000000000000005
1529,24.00000000000004
1569,24.000000000000026
1609,24.000000000000005
2,1, 7,21, 0,20, 0.00,10.00,SummerDesignDay
8,16.097123145563505
10,253527139.96398828
1723,0.0
1760,529729774.254897
2,1, 7,21, 0,20,10.00,20.00,SummerDesignDay
8,16.018070242471564
10,253527139.96398828
1723,0.0
1760,513473876.5699879
2,1, 7,21, 0,20,20.00,30.00,SummerDesignDay
8,15.938779752340516
10,253527139.96398828
1723,0.0
1760,497486771.7733794
2,1, 7,21, 0,20,30.00,40.00,SummerDesignDay
8,15.85926152575189
10,253527139.96398828
1723,0.0
1760,481129104.5448226
2,1, 7,21, 0,20,40.00,50.00,SummerDesignDay
8,15.779503718563929
10,253527139.96398828
1723,0.0
1760,464164136.34460416
2,1, 7,21, 0,20,50.00,60.00,SummerDesignDay
8,15.699515709672767
10,253527139.96398828
1723,0.0
1760,445700750.6154849
2,1, 7,21, 0,20, 0.00,60.00,SummerDesignDay
849,24.000000000000026
889,24.00000000000001
929,23.99999999999999
969,24.00000000000004
1009,23.999999999999984
1049,24.00000000000003
1089,23.999999999999998
1129,24.0
1169,24.000000000000026
1209,24.000000000000033
1249,24.000000000000069
1289,24.00000000000004
1329,24.00000000000007
1369,24.00000000000003
1409,24.000000000000047
1449,24.00000000000001
1489,24.000000000000015
1529,23.99999999999999
1569,24.000000000000019
1609,24.70585180359036
2,1, 7,21, 0,21, 0.00,10.00,SummerDesignDay
8,15.63389147320404
10,244017969.10642005
1723,0.0
1760,424806408.7562585
2,1, 7,21, 0,21,10.00,20.00,SummerDesignDay
8,15.56810827419793
10,244017969.10642005
1723,0.0
1760,407168250.9122002
2,1, 7,21, 0,21,20.00,30.00,SummerDesignDay
8,15.502170882753524
10,244017969.10642005
1723,0.0
1760,389553924.8890375
2,1, 7,21, 0,21,30.00,40.00,SummerDesignDay
8,15.436068032613852
10,244017969.10642005
1723,0.0
1760,371918438.1045591
2,1, 7,21, 0,21,40.00,50.00,SummerDesignDay
8,15.369804371206009
10,244017969.10642005
1723,0.0
1760,355008895.8602608
2,1, 7,21, 0,21,50.00,60.00,SummerDesignDay
8,15.303384603594449
10,244017969.10642005
1723,0.0
1760,338586740.26200267
2,1, 7,21, 0,21, 0.00,60.00,SummerDesignDay
849,24.00000000000001
889,24.0
929,24.000000000000019
969,23.994460820451847
1009,23.999999999999959
1049,24.000000000000019
1089,23.999999999999987
1129,24.00000000000001
1169,24.00000000000001
1209,23.99999999999999
1249,24.000000000000026
1289,24.000000000000044