Program Version,EnergyPlus, Version 8.9.0-eba93e8e1b, YMD=2019.03.19 18:44
1,5,Environment Title[],Latitude[deg],Longitude[deg],Time Zone[],Elevation[m]
2,8,Day of Simulation[],Month[],Day of Month[],DST Indicator[1=yes 0=no],Hour[],StartMinute[],EndMinute[],DayType
3,5,Cumulative Day of Simulation[],Month[],Day of Month[],DST Indicator[1=yes 0=no],DayType  ! When Daily Report Variables Requested
4,2,Cumulative Days of Simulation[],Month[]  ! When Monthly Report Variables Requested
5,1,Cumulative Days of Simulation[] ! When Run Period Report Variables Requested
6,1,Calendar Year of Simulation[] ! When Annual Report Variables Requested
7,9,Environment,Site Outdoor Air Drybulb Temperature [C] !Monthly [Value,Min,Day,Hour,Minute,Max,Day,Hour,Minute]
8,1,Environment,Site Outdoor Air Wetbulb Temperature [C] !TimeStep
1047,1,ALL_ST=STORAGE AREA - OCCSENS_FL=STORY 3_SCH=E,Zone Air Temperature [C] !Hourly
1048,7,ALL_ST=STORAGE AREA - OCCSENS_FL=STORY 3_SCH=E,Zone Air Relative Humidity [%] !Daily [Value,Min,Hour,Minute,Max,Hour,Minute]
1087,1,ALL_ST=STORAGE AREA - REFRIGERATED - OCCSENS_FL=STORY 1_SCH=E,Zone Air Temperature [C] !Hourly
1088,7,ALL_ST=STORAGE AREA - REFRIGERATED - OCCSENS_FL=STORY 1_SCH=E,Zone Air Relative Humidity [%] !Daily [Value,Min,Hour,Minute,Max,Hour,Minute]
1127,1,ALL_ST=STORAGE AREA - REFRIGERATED_FL=STORY 1_SCH=E,Zone Air Temperature [C] !Hourly
1128,7,ALL_ST=STORAGE AREA - REFRIGERATED_FL=STORY 1_SCH=E,Zone Air Relative Humidity [%] !Daily [Value,Min,Hour,Minute,Max,Hour,Minute]
1167,1,ALL_ST=STORAGE AREA_FL=STORY 3_SCH=E,Zone Air Temperature [C] !Hourly
1168,7,ALL_ST=STORAGE AREA_FL=STORY 3_SCH=E,Zone Air Relative Humidity [%] !Daily [Value,Min,Hour,Minute,Max,Hour,Minute]
1207,1,ALL_ST=TRANSP. BAGGAGE_FL=STORY 4_SCH=H,Zone Air Temperature [C] !Hourly
1208,7,ALL_ST=TRANSP. BAGGAGE_FL=STORY 4_SCH=H,Zone Air Relative Humidity [%] !Daily [Value,Min,Hour,Minute,Max,Hour,Minute]
1247,1,ALL_ST=TRANSP. CONCOURSE_FL=STORY 2_SCH=H,Zone Air Temperature [C] !Hourly
1248,7,ALL_ST=TRANSP. CONCOURSE_FL=STORY 2_SCH=H,Zone Air Relative Humidity [%] !Daily [Value,Min,Hour,Minute,Max,Hour,Minute]
1287,1,ALL_ST=TRANSP. COUNTER_FL=STORY 2_SCH=H,Zone Air Temperature [C] !Hourly
1288,7,ALL_ST=TRANSP. COUNTER_FL=STORY 2_SCH=H,Zone Air Relative Humidity [%] !Daily [Value,Min,Hour,Minute,Max,Hour,Minute]
1327,1,ALL_ST=TRANSP. SEATING_FL=STORY 1_SCH=H,Zone Air Temperature [C] !Hourly
1328,7,ALL_ST=TRANSP. SEATING_FL=STORY 1_SCH=H,Zone Air Relative Humidity [%] !Daily [Value,Min,Hour,Minute,Max,Hour,Minute]
1367,1,ALL_ST=WAREHOUSE - FINE - REFRIGERATED_FL=STORY 4_SCH=A,Zone Air Temperature [C] !Hourly
1368,7,ALL_ST=WAREHOUSE - FINE - REFRIGERATED_FL=STORY 4_SCH=A,Zone Air Relative Humidity [%] !Daily [Value,Min,Hour,Minute,Max,Hour,Minute]
1407,1,ALL_ST=WAREHOUSE - FINE_FL=STORY 1_SCH=A,Zone Air Temperature [C] !Hourly
1408,7,ALL_ST=WAREHOUSE - FINE_FL=STORY 1_SCH=A,Zone Air Relative Humidity [%] !Daily [Value,Min,Hour,Minute,Max,Hour,Minute]
1447,1,ALL_ST=WAREHOUSE - MED/BLK - REFRIGERATED_FL=STORY 3_SCH=A,Zone Air Temperature [C] !Hourly
1448,7,ALL_ST=WAREHOUSE - MED/BLK - REFRIGERATED_FL=STORY 3_SCH=A,Zone Air Relative Humidity [%] !Daily [Value,Min,Hour,Minute,Max,Hour,Minute]
1487,1,ALL_ST=WAREHOUSE - MED/BLK2 - REFRIGERATED_FL=STORY 2_SCH=A,Zone Air Temperature [C] !Hourly
1488,7,ALL_ST=WAREHOUSE - MED/BLK2 - REFRIGERATED_FL=STORY 2_SCH=A,Zone Air Relative Humidity [%] !Daily [Value,Min,Hour,Minute,Max,Hour,Minute]
1527,1,ALL_ST=WAREHOUSE - MED/BLK2_FL=STORY 1_SCH=A,Zone Air Temperature [C] !Hourly
1528,7,ALL_ST=WAREHOUSE - MED/BLK2_FL=STORY 1_SCH=A,Zone Air Relative Humidity [%] !Daily [Value,Min,Hour,Minute,Max,Hour,Minute]
1567,1,ALL_ST=WAREHOUSE - MED/BLK_FL=STORY 2_SCH=A,Zone Air Temperature [C] !Hourly
1568,7,ALL_ST=WAREHOUSE - MED/BLK_FL=STORY 2_SCH=A,Zone Air Relative Humidity [%] !Daily [Value,Min,Hour,Minute,Max,Hour,Minute]
1607,1,WET_ST=WASHROOM-SCH-A_FL=STORY 3_SCHA,Zone Air Temperature [C] !Hourly
1608,7,WET_ST=WASHROOM-SCH-A_FL=STORY 3_SCHA,Zone Air Relative Humidity [%] !Daily [Value,Min,Hour,Minute,Max,Hour,Minute]
1647,1,WET_ST=WASHROOM-SCH-B_FL=STORY 2_SCHA,Zone Air Temperature [C] !Hourly
1648,7,WET_ST=WASHROOM-SCH-B_FL=STORY 2_SCHA,Zone Air Relative Humidity [%] !Daily [Value,Min,Hour,Minute,Max,Hour,Minute]
1687,1,WILD_ST=STAIRWAY-SCH-F_FL=STORY 4_SCH=A,Zone Air Temperature [C] !Hourly
1688,7,WILD_ST=STAIRWAY-SCH-F_FL=STORY 4_SCH=A,Zone Air Relative Humidity [%] !Daily [Value,Min,Hour,Minute,Max,Hour,Minute]
1727,1,WILD_ST=STAIRWAY-SCH-G_FL=STORY 4_SCH=A,Zone Air Temperature [C] !Hourly
1728,7,WILD_ST=STAIRWAY-SCH-G_FL=STORY 4_SCH=A,Zone Air Relative Humidity [%] !Daily [Value,Min,Hour,Minute,Max,Hour,Minute]
1767,1,WILD_ST=STAIRWAY-SCH-H_FL=STORY 4_SCH=A,Zone Air Temperature [C] !Hourly
1768,7,WILD_ST=STAIRWAY-SCH-H_FL=STORY 4_SCH=A,Zone Air Relative Humidity [%] !Daily [Value,Min,Hour,Minute,Max,Hour,Minute]
1807,1,WILD_ST=STAIRWAY-SCH-I_FL=STORY 3_SCH=A,Zone Air Temperature [C] !Hourly
1808,7,WILD_ST=STAIRWAY-SCH-I_FL=STORY 3_SCH=A,Zone Air Relative Humidity [%] !Daily [Value,Min,Hour,Minute,Max,Hour,Minute]
10,1,Electricity:Facility [J] !TimeStep
813,1,Gas:Facility [J] !TimeStep
End of Data Dictionary
1,FORT MCMURRAY AP ANN CLG .4% CONDNS DB=>MWB,  56.65,-111.22,  -7.00, 369.10
2,1, 7,21, 0, 1, 0.00,10.00,SummerDesignDay
8,14.218136923962174
10,87016155.79649371
813,27936279.84572783
2,1, 7,21, 0, 1,10.00,20.00,SummerDesignDay
8,14.171982153293495
10,86998544.34045273
813,27901112.65588623
2,1, 7,21, 0, 1,20.00,30.00,SummerDesignDay
8,14.125744780286427
10,86981472.62175164
813,27857191.8678287
2,1, 7,21, 0, 1,30.00,40.00,SummerDesignDay
8,14.079436086331978
10,86964598.7792719
813,27811764.130439447
2,1, 7,21, 0, 1,40.00,50.00,SummerDesignDay
8,14.033050387896898
10,86947893.6509277
813,28324011.917383214
2,1, 7,21, 0, 1,50.00,60.00,SummerDesignDay
8,13.986581233564835
10,86931355.01572868
813,34933581.529585
2,1, 7,21, 0, 1, 0.00,60.00,SummerDesignDay
1047,24.88173288571397
1087,24.94618672368263
1127,24.391791713422408
1167,25.202367648101786
1207,23.999127806202908
1247,22.729025306928027
1287,23.997809595950434
1327,22.865269625636456
1367,25.623958060477393
1407,24.577927751711227
1447,26.160999239639794
1487,24.905563901428406
1527,24.54068920043869
1567,25.643208777037285
1607,26.817175396926364
1647,25.86704947135674
1687,23.775490954314763
1727,23.54648349410425
1767,23.692160469672787
1807,25.606116332483965
2,1, 7,21, 0, 2, 0.00,10.00,SummerDesignDay
8,13.95555882260429
10,86916082.9295001
813,34938809.0827754
2,1, 7,21, 0, 2,10.00,20.00,SummerDesignDay
8,13.924507755336454
10,86900786.02278504
813,34946347.74324302
2,1, 7,21, 0, 2,20.00,30.00,SummerDesignDay
8,13.893416042989206
10,86885630.40513188
813,34954005.5142662
2,1, 7,21, 0, 2,30.00,40.00,SummerDesignDay
8,13.862289589689029
10,86870626.38345969
813,34961659.222653899
2,1, 7,21, 0, 2,40.00,50.00,SummerDesignDay
8,13.831134407608739
10,86862811.26052919
813,34969307.50386699
2,1, 7,21, 0, 2,50.00,60.00,SummerDesignDay
8,13.799938415548118
10,86858723.49691189
813,34976949.2118308
2,1, 7,21, 0, 2, 0.00,60.00,SummerDesignDay
1047,24.636151221406654
1087,24.833843501548928
1127,24.27052500682184
1167,25.00108513347837
1207,23.995662535228889
1247,22.666190236104716
1287,23.997811636956329
1327,22.855215330721646
1367,25.15048801501064
1407,24.47043063714843
1447,25.886377438804563
1487,24.699284448845309
1527,24.43175268685695
1567,25.506909328125329
1607,26.587605069107555
1647,25.73949134176533
1687,23.455056367293243
1727,23.21109575358014
1767,23.332244358362805
1807,25.441975678586613
2,1, 7,21, 0, 3, 0.00,10.00,SummerDesignDay
8,13.776521671948676
10,86854514.95974052
813,28795867.69238949
2,1, 7,21, 0, 3,10.00,20.00,SummerDesignDay
8,13.753085235778466
10,86850355.26863554
813,27906441.372351827
2,1, 7,21, 0, 3,20.00,30.00,SummerDesignDay
8,13.729636002354969
10,86846349.64819944
813,27862638.744275549
2,1, 7,21, 0, 3,30.00,40.00,SummerDesignDay
8,13.706147375533054
10,86842264.57417074
813,27817350.23794995
2,1, 7,21, 0, 3,40.00,50.00,SummerDesignDay
8,13.682651961920304
10,86838081.9952127
813,27770927.260302236
2,1, 7,21, 0, 3,50.00,60.00,SummerDesignDay
8,13.659136670643687
10,86833805.5676941
813,34617694.124577019
2,1, 7,21, 0, 3, 0.00,60.00,SummerDesignDay
1047,24.421929476224326
1087,24.73568898155217
1127,24.16951501683681
1167,24.821135980202074
1207,23.907151374997395
1247,22.602280600159415
1287,23.9978127834553
1327,22.842968347152767
1367,24.764281960588688
1407,24.38793715275783
1447,25.652378163541245
1487,24.528953724721985
1527,24.348634325404416
1567,25.389136250719678
1607,26.37808218212899
1647,25.629718782718716
1687,23.191428851519317
1727,22.934904424719858
1767,23.033500432430797
1807,25.293211846195957
2,1, 7,21, 0, 4, 0.00,10.00,SummerDesignDay
8,13.63560137410855
10,86829237.65787086
813,34937916.82844608
2,1, 7,21, 0, 4,10.00,20.00,SummerDesignDay
8,13.612040802606578
10,86824320.25747159
813,34945416.332197528
2,1, 7,21, 0, 4,20.00,30.00,SummerDesignDay
8,13.58846620506876
10,86819287.73292449
813,34953074.137466337
2,1, 7,21, 0, 4,30.00,40.00,SummerDesignDay
8,13.56487178447336
10,86814161.29890856
813,34960728.427032869
2,1, 7,21, 0, 4,40.00,50.00,SummerDesignDay
8,13.541257354069103
10,86808941.92704925
813,34968377.429861169
2,1, 7,21, 0, 4,50.00,60.00,SummerDesignDay
8,13.517617463812285
10,86803631.10115034
813,34976019.99866311
2,1, 7,21, 0, 4, 0.00,60.00,SummerDesignDay
1047,24.22195066048449
1087,24.644314938529094
1127,24.07865118938132
1167,24.650392484159828
1207,23.756133259328423
1247,22.537881281859357
1287,23.99781322735024
1327,22.829320322777475
1367,24.43234282543919
1407,24.316433758756973
1447,25.439827680073099
1487,24.374349196838549
1527,24.277894365995608
1567,25.27956288027146
1607,26.179276728327783
1647,25.526420133830287
1687,22.96165724420418
1727,22.693172944599764
1767,22.771700218710689
1807,25.15512179837299
2,1, 7,21, 0, 5, 0.00,10.00,SummerDesignDay
8,13.50185415824011
10,86798230.52816063
813,29652980.44802356
2,1, 7,21, 0, 5,10.00,20.00,SummerDesignDay
8,13.486076034032447
10,86793058.14706764
813,27911457.919962888
2,1, 7,21, 0, 5,20.00,30.00,SummerDesignDay
8,13.470289340350983
10,86788714.4714377
813,27868055.718656295
2,1, 7,21, 0, 5,30.00,40.00,SummerDesignDay
8,13.454493322631063
10,86784947.05085415
813,27822913.573355549
2,1, 7,21, 0, 5,40.00,50.00,SummerDesignDay
8,13.438688835118548
10,86878431.2284339
813,27776630.373312054
2,1, 7,21, 0, 5,50.00,60.00,SummerDesignDay
8,13.422888173889437
10,87111437.53741592
813,33744233.16950509
2,1, 7,21, 0, 5, 0.00,60.00,SummerDesignDay
1047,24.03882183202226
1087,24.556092438187606
1127,23.992707618299858
1167,24.548946829429356
1207,23.832213570143439
1247,22.47874392608642
1287,23.99781245015569
1327,22.814215209344295
1367,24.18105357345672
1407,24.24969998698798
1447,25.33482706401657
1487,24.29035618487745
1527,24.21330473950053
1567,25.274541655208397
1607,25.993971427550489
1647,25.430800168540569
1687,22.803296842789025
1727,22.623121471112005
1767,22.592258498527874
1807,25.0274085346892
2,1, 7,21, 0, 6, 0.00,10.00,SummerDesignDay
8,13.438688835118548
10,87152523.02128825
813,34937086.23736069
2,1, 7,21, 0, 6,10.00,20.00,SummerDesignDay
8,13.454493322631063
10,87322422.7719155
813,34944488.09511082
2,1, 7,21, 0, 6,20.00,30.00,SummerDesignDay
8,13.470289340350983
10,87482719.67475525
813,34952142.473214548
2,1, 7,21, 0, 6,30.00,40.00,SummerDesignDay
8,13.486076034032447
10,87656016.47571108
813,34959797.32255161
2,1, 7,21, 0, 6,40.00,50.00,SummerDesignDay
8,13.50185415824011
10,87840698.54406563
813,34967447.03020107
2,1, 7,21, 0, 6,50.00,60.00,SummerDesignDay
8,13.517617463812285
10,88037825.28825203
813,34975090.44306609
2,1, 7,21, 0, 6, 0.00,60.00,SummerDesignDay
1047,23.930061688600078
1087,24.494506615726306
1127,23.932510660606238
1167,24.550589726017706
1207,23.999088358683719
1247,22.43959851838473
1287,23.99780848859696
1327,22.809451395372009
1367,24.187935234959217
1407,24.20735633792128
1447,25.649612571156508
1487,24.319183671372014
1527,24.174377200753765
1567,25.691328338352844
1607,25.864458969154357
1647,25.380650679389125
1687,22.91918756587034
1727,22.892735807498558
1767,22.704368367406599
1807,24.967585857720569
2,1, 7,21, 0, 7, 0.00,10.00,SummerDesignDay
8,13.572736920571789
10,113033449.5688151
813,30731826.750936804
2,1, 7,21, 0, 7,10.00,20.00,SummerDesignDay
8,13.627748229152554
10,108636600.44460185
813,27713274.520543219
2,1, 7,21, 0, 7,20.00,30.00,SummerDesignDay
8,13.682651961920304
10,105873795.81907049
813,27839849.752298219
2,1, 7,21, 0, 7,30.00,40.00,SummerDesignDay
8,13.737448093244995
10,103078436.95055089
813,27899101.355533568
2,1, 7,21, 0, 7,40.00,50.00,SummerDesignDay
8,13.792137011831216
10,103082896.58741695
813,27783855.08709941
2,1, 7,21, 0, 7,50.00,60.00,SummerDesignDay
8,13.846719282840333
10,103764858.07802752
813,33397827.227812228
2,1, 7,21, 0, 7, 0.00,60.00,SummerDesignDay
1047,23.924627897330557
1087,24.481468216031347
1127,23.920939183208888
1167,24.50411319015443
1207,23.999188978290918
1247,22.409814234773465
1287,23.99849060386931
1327,22.826467859485758
1367,24.50613617803158
1407,24.001229291135247
1447,26.11669542475055
1487,24.299268158979449
1527,24.00090962378701
1567,24.231743803886418
1607,24.12535892319249
1647,23.889017206876166
1687,23.288113027387568
1727,23.197284478568393
1767,23.075160783581287
1807,24.984256293245097
2,1, 7,21, 0, 8, 0.00,10.00,SummerDesignDay
8,13.978831900527043
10,147619218.82242266
813,35647331.15787323
2,1, 7,21, 0, 8,10.00,20.00,SummerDesignDay
8,14.110321014287419
10,140157917.91683416
813,35259642.05969686
2,1, 7,21, 0, 8,20.00,30.00,SummerDesignDay
8,14.241191509616986
10,153737261.60181556
813,35270884.221696589
2,1, 7,21, 0, 8,30.00,40.00,SummerDesignDay
8,14.371447531304272
10,154503808.9640444
813,35277593.68319189
2,1, 7,21, 0, 8,40.00,50.00,SummerDesignDay
8,14.501093766564925
10,157629509.6155442
813,35284455.29521621
2,1, 7,21, 0, 8,50.00,60.00,SummerDesignDay
8,14.630134792273804
10,160900531.99879454
813,35291310.583906758
2,1, 7,21, 0, 8, 0.00,60.00,SummerDesignDay
1047,23.21418628497501
1087,24.160583667681949
1127,23.554084456194486
1167,24.008788970225067
1207,23.998888606308005
1247,22.3868844798161
1287,23.998052535198327
1327,22.857006429124099
1367,25.573318775181837
1407,23.99992132617672
1447,26.81724066742122
1487,24.626285288554589
1527,23.999916414421496
1567,23.999616250354455
1607,23.999836044608146
1647,23.78094548339574
1687,23.945954729998208
1727,23.726181891972627
1767,23.64142856409911
1807,25.056843523954496
2,1, 7,21, 0, 9, 0.00,10.00,SummerDesignDay
8,14.773641492809972
10,253494070.5959613
813,37464980.04771892
2,1, 7,21, 0, 9,10.00,20.00,SummerDesignDay
8,14.91640948124148
10,257907620.11123229
813,34470341.4942354
2,1, 7,21, 0, 9,20.00,30.00,SummerDesignDay
8,15.05843890714102
10,261347429.19165323
813,34458143.41493627
2,1, 7,21, 0, 9,30.00,40.00,SummerDesignDay
8,15.199735893563798
10,264824122.84262339
813,34463107.53737311
2,1, 7,21, 0, 9,40.00,50.00,SummerDesignDay
8,15.340306256439395
10,268248560.37050034
813,34478339.094882357
2,1, 7,21, 0, 9,50.00,60.00,SummerDesignDay
8,15.48015101768072
10,271604629.337786
813,34497311.51630162
2,1, 7,21, 0, 9, 0.00,60.00,SummerDesignDay
1047,23.06318126531282
1087,24.187683471294425
1127,23.5732428291082
1167,23.99990116855926
1207,23.999323762383538
1247,22.383723851119347
1287,23.998770679013434
1327,22.896374695387384
1367,27.866900564834834
1407,23.99979681544539
1447,27.81956081297734
1487,25.55365325289377
1527,23.99981827192556
1567,23.999756278981779
1607,23.999791395260094
1647,23.863907430875558
1687,23.99983087167632
1727,23.51085818805171
1767,23.382714520930489
1807,24.776087569766138
2,1, 7,21, 0,10, 0.00,10.00,SummerDesignDay
8,15.60467292907716
10,301853496.8356973
813,40106451.17992488
2,1, 7,21, 0,10,10.00,20.00,SummerDesignDay
8,15.72862731650033
10,305338599.0524066
813,40451738.00282891
2,1, 7,21, 0,10,20.00,30.00,SummerDesignDay
8,15.852017409284228
10,308302264.74083778
813,40449881.28909611
2,1, 7,21, 0,10,30.00,40.00,SummerDesignDay
8,15.974848118364367
10,311121089.65850368
813,40432075.94167759
2,1, 7,21, 0,10,40.00,50.00,SummerDesignDay
8,16.097123145563505
10,313755616.9553646
813,44840506.384010348
2,1, 7,21, 0,10,50.00,60.00,SummerDesignDay
8,16.218846351168599
10,316359097.2219281
813,44951589.69001928
2,1, 7,21, 0,10, 0.00,60.00,SummerDesignDay
1047,22.809031059160458
1087,24.309398094885894
1127,23.667525284187567
1167,23.999835475572696
1207,23.999387632205968
1247,22.396509670168059
1287,23.998770029707499
1327,22.944773501485757
1367,30.57462590267561
1407,23.99974429238179
1447,28.684959140344075
1487,26.53702379916749
1527,23.99981462868337
1567,23.999814517838776
1607,23.999696802430298
1647,23.874529512771294
1687,23.999738538208818
1727,23.295397916161876
1767,23.138587267192237
1807,24.426469226479555
2,1, 7,21, 0,11, 0.00,10.00,SummerDesignDay
8,16.325793027093189
10,326699621.3029422
813,51482054.812253568
2,1, 7,21, 0,11,10.00,20.00,SummerDesignDay
8,16.432322158488288
10,329408233.19589409
813,52508771.382667
2,1, 7,21, 0,11,20.00,30.00,SummerDesignDay
8,16.538424180249178
10,331805113.2310056
813,52501956.80749593
2,1, 7,21, 0,11,30.00,40.00,SummerDesignDay
8,16.644108396469087
10,334113489.47611138
813,48577668.25858298
2,1, 7,21, 0,11,40.00,50.00,SummerDesignDay
8,16.749376736593655
10,336491303.3078419
813,44707605.4239932
2,1, 7,21, 0,11,50.00,60.00,SummerDesignDay
8,16.854232613237156
10,338975004.9530533
813,44689074.775358539
2,1, 7,21, 0,11, 0.00,60.00,SummerDesignDay
1047,22.58154456231424
1087,24.396731425052925
1127,23.711144757973505
1167,23.99977154098178
1207,23.99944398985259
1247,22.42105638418778
1287,23.998769509842729
1327,22.984181460356017
1367,32.97071000363439
1407,23.999733492452746
1447,29.08854976016104
1487,27.180932793952946
1527,23.999848246136595
1567,23.999882460410139
1607,23.999625208800965
1647,23.817595872802597
1687,23.999716763045588
1727,23.14456835181474
1767,22.978432342445247
1807,24.152994440802077
2,1, 7,21, 0,12, 0.00,10.00,SummerDesignDay
8,16.92390823520069
10,340853469.8269639
813,44698491.65593478
2,1, 7,21, 0,12,10.00,20.00,SummerDesignDay
8,16.99340178950456
10,342701277.0773369
813,44715946.83494998
2,1, 7,21, 0,12,20.00,30.00,SummerDesignDay
8,17.06272006743463
10,344569127.1561525
813,44704764.2092796
2,1, 7,21, 0,12,30.00,40.00,SummerDesignDay
8,17.131853229172639
10,346396389.20770737
813,44679378.67421261
2,1, 7,21, 0,12,40.00,50.00,SummerDesignDay
8,17.200807172194087
10,348196983.09501907
813,50869987.09488838
2,1, 7,21, 0,12,50.00,60.00,SummerDesignDay
8,17.269582116758607
10,349911242.4155469
813,52497498.557273719
2,1, 7,21, 0,12, 0.00,60.00,SummerDesignDay
1047,22.44227145786755
1087,24.388395107203526
1127,23.65630267124621
1167,23.999614973457438
1207,23.999195354279807
1247,22.44136865484793
1287,23.99813290122781
1327,23.003226009485105
1367,34.91971224096267
1407,23.99955612007135
1447,29.34177095945162
1487,27.60172572277489
1527,23.99978872830586
1567,23.999851307471237
1607,24.007737041565993
1647,23.72026053187839
1687,23.99958427634491
1727,23.031548130513717
1767,22.865981497799429
1807,23.98029404298178
2,1, 7,21, 0,13, 0.00,10.00,SummerDesignDay
8,17.32447360221357
10,350825238.2742684
813,58908430.1152792
2,1, 7,21, 0,13,10.00,20.00,SummerDesignDay
8,17.379251291230806
10,352352190.9314743
813,54297545.02256278
2,1, 7,21, 0,13,20.00,30.00,SummerDesignDay
8,17.433921312061729
10,353708158.1433113
813,47244367.398450519
2,1, 7,21, 0,13,30.00,40.00,SummerDesignDay
8,17.488473222557489
10,355103313.29741176
813,47230674.081288117
2,1, 7,21, 0,13,40.00,50.00,SummerDesignDay
8,17.542913447755134
10,356472846.33247837
813,47215866.399218138
2,1, 7,21, 0,13,50.00,60.00,SummerDesignDay
8,17.59724609886134
10,357769680.5164098
813,47200744.40457934
2,1, 7,21, 0,13, 0.00,60.00,SummerDesignDay
1047,22.32211428206467
1087,24.352634293142559
1127,23.572144443153094
1167,23.999481403325775
1207,23.999080562045124
1247,22.458979740865144
1287,23.99779302252774
1327,23.004563614400707
1367,36.23419212791785
1407,23.999504749561088
1447,29.630916949218088
1487,27.88517817129694
1527,23.999805859693
1567,23.999831719457935
1607,24.138149039984176
1647,23.672103755726995
1687,23.99958442158363
1727,22.9619432451529
1767,22.800959387192078
1807,23.89929549628896
2,1, 7,21, 0,14, 0.00,10.00,SummerDesignDay
8,17.6311450462694
10,358526078.148493
813,63194039.31248851
2,1, 7,21, 0,14,10.00,20.00,SummerDesignDay
8,17.665000449016245
10,359216234.32457098
813,65163133.52837163
2,1, 7,21, 0,14,20.00,30.00,SummerDesignDay
8,17.698812743128934
10,359756491.18032327
813,49413492.61181613
2,1, 7,21, 0,14,30.00,40.00,SummerDesignDay
8,17.732582050940107
10,360260755.29811647
813,49397885.52921817
2,1, 7,21, 0,14,40.00,50.00,SummerDesignDay
8,17.766307345121004
10,360727879.5868802
813,49379778.982572827
2,1, 7,21, 0,14,50.00,60.00,SummerDesignDay
8,17.79999023167558
10,361159100.687299
813,63433888.31004768
2,1, 7,21, 0,14, 0.00,60.00,SummerDesignDay
1047,22.23730835160896
1087,24.324082998609439
1127,23.49354680288356
1167,23.99936726646081
1207,24.006796979097726
1247,22.50622695351529
1287,23.997793450904543
1327,22.997364046969364
1367,37.05745483453969
1407,23.999520610026854
1447,29.890559746294099
1487,28.125347497490706
1527,23.99984094496085
1567,23.999835270994877
1607,24.380215968368917
1647,23.713395168710986
1687,23.999705228790579
1727,22.933300409208596
1767,22.8515360539169
1807,23.915959310300978
2,1, 7,21, 0,15, 0.00,10.00,SummerDesignDay
8,17.79999023167558
10,361099382.9677257
813,64579896.73857937
2,1, 7,21, 0,15,10.00,20.00,SummerDesignDay
8,17.79999023167558
10,360467112.1910147
813,48371060.41108863
2,1, 7,21, 0,15,20.00,30.00,SummerDesignDay
8,17.79999023167558
10,359924541.21697947
813,48357645.21027609
2,1, 7,21, 0,15,30.00,40.00,SummerDesignDay
8,17.79999023167558
10,359241427.9647785
813,48341139.223910149
2,1, 7,21, 0,15,40.00,50.00,SummerDesignDay
8,17.79999023167558
10,358566605.23482856
813,48324106.61359953
2,1, 7,21, 0,15,50.00,60.00,SummerDesignDay
8,17.79999023167558
10,357993367.5101642
813,63018005.23960105
2,1, 7,21, 0,15, 0.00,60.00,SummerDesignDay
1047,22.414646512526759
1087,24.274204120628764
1127,23.404045905448514
1167,23.99930250677988
1207,23.999204858768665
1247,22.786409989536947
1287,23.997793012255199
1327,22.989439497433567
1367,37.25685236270059
1407,23.99948728674337
1447,30.085907511914699
1487,28.317014274450857
1527,23.999793783089289
1567,23.99979301809145
1607,24.589538217536974
1647,23.74096260272403
1687,23.999730879270556
1727,22.944067393149284
1767,23.283013633408534
1807,24.036541121225047
2,1, 7,21, 0,16, 0.00,10.00,SummerDesignDay
8,17.759562446305357
10,356754449.86564657
813,60132405.23937915
2,1, 7,21, 0,16,10.00,20.00,SummerDesignDay
8,17.71907809634183
10,355297067.00527426
813,51031776.20365422
2,1, 7,21, 0,16,20.00,30.00,SummerDesignDay
8,17.67853788661001
10,353790409.792798
813,47241119.736878518
2,1, 7,21, 0,16,30.00,40.00,SummerDesignDay
8,17.63791796367351
10,352173668.1748937
813,47226847.237847428
2,1, 7,21, 0,16,40.00,50.00,SummerDesignDay
8,17.59724609886134
10,350457806.0192343
813,47211940.866566229
2,1, 7,21, 0,16,50.00,60.00,SummerDesignDay
8,17.55650676726033
10,348625531.39100947
813,47196745.79216607
2,1, 7,21, 0,16, 0.00,60.00,SummerDesignDay
1047,22.7617213506672
1087,24.26153938106574
1127,23.37311994347407
1167,23.999198863576298
1207,23.999139861594846
1247,23.23910571303478
1287,23.99779271029713
1327,22.982009224954937
1367,36.79412944328336
1407,23.99937468690318
1447,30.1350029634776
1487,28.381451939124504
1527,23.999717682969359
1567,23.999730901761969
1607,24.616176555276146
1647,23.607017949741168
1687,23.999697204142753
1727,22.995123565113926
1767,23.966871429918485
1807,24.249330669695998
2,1, 7,21, 0,17, 0.00,10.00,SummerDesignDay
8,17.50209486331892
10,346495082.88739
813,58986100.15840431
2,1, 7,21, 0,17,10.00,20.00,SummerDesignDay
8,17.447570789624618
10,344250256.7068669
813,60108486.54295135
2,1, 7,21, 0,17,20.00,30.00,SummerDesignDay
8,17.392929544208135
10,341969982.03858247
813,54639272.682765658
2,1, 7,21, 0,17,30.00,40.00,SummerDesignDay
8,17.33818013976614
10,339852730.6961861
813,47356460.169992979
2,1, 7,21, 0,17,40.00,50.00,SummerDesignDay
8,17.283317298559309
10,337722366.8807622
813,47342611.87797877
2,1, 7,21, 0,17,50.00,60.00,SummerDesignDay
8,17.22833552437677
10,335587063.6102692
813,47327607.37889668
2,1, 7,21, 0,17, 0.00,60.00,SummerDesignDay
1047,23.038350576891149
1087,24.267190544240039
1127,23.387777281847535
1167,23.999118801346957
1207,23.999226816482307
1247,23.55951036583367
1287,23.997793816193039
1327,22.974792177086134
1367,35.82539164687689
1407,23.99923304653825
1447,30.032914380552943
1487,28.327954732447187
1527,23.999633543668993
1567,23.99968762280757
1607,24.595452843201867
1647,23.471642050019474
1687,23.99969886086889
1727,23.091432587211345
1767,24.485850456556436
1807,24.555144079101667
2,1, 7,21, 0,18, 0.00,10.00,SummerDesignDay
8,17.159453019160176
10,319580366.16322758
813,39685871.19798253
2,1, 7,21, 0,18,10.00,20.00,SummerDesignDay
8,17.090391773337136
10,317045495.19770279
813,38598487.15023951
2,1, 7,21, 0,18,20.00,30.00,SummerDesignDay
8,17.021151077964786
10,314665995.24497237
813,39316430.65729927
2,1, 7,21, 0,18,30.00,40.00,SummerDesignDay
8,16.951729380464653
10,312305904.48115339
813,42707248.58330067
2,1, 7,21, 0,18,40.00,50.00,SummerDesignDay
8,16.882126503829249
10,310010268.9588794
813,42708765.49454179
2,1, 7,21, 0,18,50.00,60.00,SummerDesignDay
8,16.812341807494034
10,307789165.39592757
813,42710939.5572117
2,1, 7,21, 0,18, 0.00,60.00,SummerDesignDay
1047,23.244491751686839
1087,24.273821504596353
1127,23.42667223782654
1167,23.99911921362188
1207,23.99926996103235
1247,23.740132583812696
1287,23.997796003003477
1327,22.966594021414506
1367,34.489205415318718
1407,23.999295371693678
1447,29.77573330492091
1487,28.128954439491876
1527,23.999601661736937
1567,23.999698081458715
1607,24.494713296371754
1647,23.30627725708847
1687,23.99977981105971
1727,23.23279842354692
1767,24.824315042747263
1807,24.89621409503549
2,1, 7,21, 0,19, 0.00,10.00,SummerDesignDay
8,16.707321072823203
10,240912677.58201654
813,37366338.701404068
2,1, 7,21, 0,19,10.00,20.00,SummerDesignDay
8,16.601881826644556
10,237415914.43731005
813,36612174.672322329
2,1, 7,21, 0,19,20.00,30.00,SummerDesignDay
8,16.496030555252849
10,234688048.26386128
813,36591601.71566268
2,1, 7,21, 0,19,30.00,40.00,SummerDesignDay
8,16.389760181474104
10,232065053.80197526
813,36586681.04786488
2,1, 7,21, 0,19,40.00,50.00,SummerDesignDay
8,16.283067654262039
10,229575699.2823094
813,36608367.998744379
2,1, 7,21, 0,19,50.00,60.00,SummerDesignDay
8,16.17595057957811
10,227211507.23212419
813,35648912.569880198
2,1, 7,21, 0,19, 0.00,60.00,SummerDesignDay
1047,23.493825172400454
1087,24.103879005176464
1127,23.30279629099154
1167,23.999697670551258
1207,23.999565737431124
1247,23.758162180127344
1287,23.99876875709875
1327,22.953561237597055
1367,32.648720714534359
1407,23.999764879142103
1447,29.179118423184815
1487,27.597721501384503
1527,23.999856937927065
1567,23.999872054554577
1607,24.15801271360974
1647,22.93928834040385
1687,23.999934765852559
1727,23.441911516256757
1767,24.96288730663103
1807,25.165388881332395
2,1, 7,21, 0,20, 0.00,10.00,SummerDesignDay
8,16.097123145563505
10,168578735.6380077
813,29964774.31376355
2,1, 7,21, 0,20,10.00,20.00,SummerDesignDay
8,16.018070242471564
10,166431382.9894063
813,30059692.116312837
2,1, 7,21, 0,20,20.00,30.00,SummerDesignDay
8,15.938779752340516
10,164654473.6993453
813,30393982.57149011
2,1, 7,21, 0,20,30.00,40.00,SummerDesignDay
8,15.85926152575189
10,163214319.34061314
813,29830832.01728875
2,1, 7,21, 0,20,40.00,50.00,SummerDesignDay
8,15.779503718563929
10,161466251.44917838
813,29841978.344267258
2,1, 7,21, 0,20,50.00,60.00,SummerDesignDay
8,15.699515709672767
10,159695963.16564466
813,31600521.792560139
2,1, 7,21, 0,20, 0.00,60.00,SummerDesignDay
1047,25.41593041437885
1087,24.690914794656057
1127,24.05179096923544
1167,25.316415360544274
1207,23.999632008781757
1247,23.582897583395888
1287,23.998936348900569
1327,22.932234711245135
1367,30.80843235576631
1407,23.999884969316537
1447,28.43976124705131
1487,26.999416875064666
1527,23.999927485750719
1567,23.999924056019343
1607,24.00083559939038
1647,22.782376242174626
1687,23.999975631390475
1727,23.692163123874719
1767,24.78549495852396
1807,25.354350808384426
2,1, 7,21, 0,21, 0.00,10.00,SummerDesignDay
8,15.63389147320404
10,158231320.36743704
813,35927025.201023507
2,1, 7,21, 0,21,10.00,20.00,SummerDesignDay
8,15.56810827419793
10,156788113.1681995
813,35918742.22453874
2,1, 7,21, 0,21,20.00,30.00,SummerDesignDay
8,15.502170882753524
10,155346263.08000417
813,35923310.27627951
2,1, 7,21, 0,21,30.00,40.00,SummerDesignDay
8,15.436068032613852
10,153900182.28008164
813,35928842.75206488
2,1, 7,21, 0,21,40.00,50.00,SummerDesignDay
8,15.369804371206009
10,152507517.05129884
813,35934371.08478436
2,1, 7,21, 0,21,50.00,60.00,SummerDesignDay
8,15.303384603594449
10,150955612.98947824
813,35939893.439589109
2,1, 7,21, 0,21, 0.00,60.00,SummerDesignDay
1047,26.115133150135198
1087,25.297336057561755
1127,24.79613599157186
1167,26.113767711578875
1207,23.999261068983306
1247,23.19475594652793
1287,23.997826407308624
1327,22.909889467187523
1367,29.198695621235357
1407,23.999822425538729
1447,27.77048620634456
1487,26.42162193846214
1527,23.999880615599
1567,23.999892064662203
1607,23.999700149475584
1647,22.828529425826589
1687,23.99996941716707
1727,23.797319650631253
1767,24.27666818244228
1807,25.538530652487287
2,1, 7,21, 0,22, 0.00,10.00,SummerDesignDay
8,15.236797685071274
10,95595692.20584361
813,35996438.61488128
2,1, 7,21, 0,22,10.00,20.00,SummerDesignDay
8,15.170047891787942
10,95186308.45313034