Program Version,EnergyPlus, Version 8.9.0-eba93e8e1b, YMD=2019.04.04 17:58
1,5,Environment Title[],Latitude[deg],Longitude[deg],Time Zone[],Elevation[m]
2,8,Day of Simulation[],Month[],Day of Month[],DST Indicator[1=yes 0=no],Hour[],StartMinute[],EndMinute[],DayType
3,5,Cumulative Day of Simulation[],Month[],Day of Month[],DST Indicator[1=yes 0=no],DayType  ! When Daily Report Variables Requested
4,2,Cumulative Days of Simulation[],Month[]  ! When Monthly Report Variables Requested
5,1,Cumulative Days of Simulation[] ! When Run Period Report Variables Requested
6,1,Calendar Year of Simulation[] ! When Annual Report Variables Requested
7,9,Environment,Site Outdoor Air Drybulb Temperature [C] !Monthly [Value,Min,Day,Hour,Minute,Max,Day,Hour,Minute]
8,1,Environment,Site Outdoor Air Wetbulb Temperature [C] !TimeStep
357,1,WAREHOUSE - FINE - REFRIGERATED-SPACE FUNCTION ZN,Zone Air Temperature [C] !Hourly
358,7,WAREHOUSE - FINE - REFRIGERATED-SPACE FUNCTION ZN,Zone Air Relative Humidity [%] !Daily [Value,Min,Hour,Minute,Max,Hour,Minute]
397,1,WAREHOUSE - FINE-SPACE FUNCTION ZN,Zone Air Temperature [C] !Hourly
398,7,WAREHOUSE - FINE-SPACE FUNCTION ZN,Zone Air Relative Humidity [%] !Daily [Value,Min,Hour,Minute,Max,Hour,Minute]
437,1,WAREHOUSE - MED/BLK - REFRIGERATED-SPACE FUNCTION ZN,Zone Air Temperature [C] !Hourly
438,7,WAREHOUSE - MED/BLK - REFRIGERATED-SPACE FUNCTION ZN,Zone Air Relative Humidity [%] !Daily [Value,Min,Hour,Minute,Max,Hour,Minute]
477,1,WAREHOUSE - MED/BLK-SPACE FUNCTION ZN,Zone Air Temperature [C] !Hourly
478,7,WAREHOUSE - MED/BLK-SPACE FUNCTION ZN,Zone Air Relative Humidity [%] !Daily [Value,Min,Hour,Minute,Max,Hour,Minute]
517,1,WAREHOUSE - MED/BLK2-SPACE FUNCTION ZN,Zone Air Temperature [C] !Hourly
518,7,WAREHOUSE - MED/BLK2-SPACE FUNCTION ZN,Zone Air Relative Humidity [%] !Daily [Value,Min,Hour,Minute,Max,Hour,Minute]
10,1,Electricity:Facility [J] !TimeStep
668,1,DistrictCooling:Facility [J] !TimeStep
631,1,DistrictHeating:Facility [J] !TimeStep
End of Data Dictionary
1,FORT MCMURRAY AP ANN CLG .4% CONDNS DB=>MWB,  56.65,-111.22,  -7.00, 369.10
2,1, 7,21, 0, 1, 0.00,10.00,SummerDesignDay
8,14.218136923962174
10,3832468.1078789329
631,0.0
668,0.0
2,1, 7,21, 0, 1,10.00,20.00,SummerDesignDay
8,14.171982153293495
10,3832468.1078789329
631,0.0
668,0.0
2,1, 7,21, 0, 1,20.00,30.00,SummerDesignDay
8,14.125744780286427
10,3832468.1078789329
631,0.0
668,0.0
2,1, 7,21, 0, 1,30.00,40.00,SummerDesignDay
8,14.079436086331978
10,3832468.1078789329
631,0.0
668,0.0
2,1, 7,21, 0, 1,40.00,50.00,SummerDesignDay
8,14.033050387896898
10,3832468.1078789329
631,0.0
668,0.0
2,1, 7,21, 0, 1,50.00,60.00,SummerDesignDay
8,13.986581233564835
10,3832468.1078789329
631,0.0
668,0.0
2,1, 7,21, 0, 1, 0.00,60.00,SummerDesignDay
357,22.18974098628674
397,22.21006024944225
437,22.05907793000169
477,22.060238843010894
517,22.18079471106967
2,1, 7,21, 0, 2, 0.00,10.00,SummerDesignDay
8,13.95555882260429
10,3832468.1078789329
631,0.0
668,0.0
2,1, 7,21, 0, 2,10.00,20.00,SummerDesignDay
8,13.924507755336454
10,3832468.1078789329
631,0.0
668,0.0
2,1, 7,21, 0, 2,20.00,30.00,SummerDesignDay
8,13.893416042989206
10,3832468.1078789329
631,0.0
668,0.0
2,1, 7,21, 0, 2,30.00,40.00,SummerDesignDay
8,13.862289589689029
10,3832468.1078789329
631,0.0
668,0.0
2,1, 7,21, 0, 2,40.00,50.00,SummerDesignDay
8,13.831134407608739
10,3832468.1078789329
631,0.0
668,0.0
2,1, 7,21, 0, 2,50.00,60.00,SummerDesignDay
8,13.799938415548118
10,3832468.1078789329
631,0.0
668,0.0
2,1, 7,21, 0, 2, 0.00,60.00,SummerDesignDay
357,21.824243955406009
397,21.832579794163718
437,21.711600717980134
477,21.712436394596144
517,21.820575644188016
2,1, 7,21, 0, 3, 0.00,10.00,SummerDesignDay
8,13.776521671948676
10,3832468.1078789329
631,0.0
668,0.0
2,1, 7,21, 0, 3,10.00,20.00,SummerDesignDay
8,13.753085235778466
10,3832468.1078789329
631,0.0
668,0.0
2,1, 7,21, 0, 3,20.00,30.00,SummerDesignDay
8,13.729636002354969
10,3832468.1078789329
631,0.0
668,0.0
2,1, 7,21, 0, 3,30.00,40.00,SummerDesignDay
8,13.706147375533054
10,3832468.1078789329
631,0.0
668,0.0
2,1, 7,21, 0, 3,40.00,50.00,SummerDesignDay
8,13.682651961920304
10,3832468.1078789329
631,0.0
668,0.0
2,1, 7,21, 0, 3,50.00,60.00,SummerDesignDay
8,13.659136670643687
10,3832468.1078789329
631,0.0
668,0.0
2,1, 7,21, 0, 3, 0.00,60.00,SummerDesignDay
357,21.553118121743464
397,21.549672848151148
437,21.448559183769814
477,21.449071703652817
517,21.551537094578209
2,1, 7,21, 0, 4, 0.00,10.00,SummerDesignDay
8,13.63560137410855
10,3832468.1078789329
631,0.0
668,0.0
2,1, 7,21, 0, 4,10.00,20.00,SummerDesignDay
8,13.612040802606578
10,3832468.1078789329
631,0.0
668,0.0
2,1, 7,21, 0, 4,20.00,30.00,SummerDesignDay
8,13.58846620506876
10,3832468.1078789329
631,0.0
668,0.0
2,1, 7,21, 0, 4,30.00,40.00,SummerDesignDay
8,13.56487178447336
10,3832468.1078789329
631,0.0
668,0.0
2,1, 7,21, 0, 4,40.00,50.00,SummerDesignDay
8,13.541257354069103
10,3832468.1078789329
631,0.0
668,0.0
2,1, 7,21, 0, 4,50.00,60.00,SummerDesignDay
8,13.517617463812285
10,3832468.1078789329
631,0.0
668,0.0
2,1, 7,21, 0, 4, 0.00,60.00,SummerDesignDay
357,21.345273376976313
397,21.33158432372585
437,21.244544054502958
477,21.244835225291224
517,21.344573074753954
2,1, 7,21, 0, 5, 0.00,10.00,SummerDesignDay
8,13.50185415824011
10,3832468.1078789329
631,0.0
668,0.0
2,1, 7,21, 0, 5,10.00,20.00,SummerDesignDay
8,13.486076034032447
10,3832468.1078789329
631,0.0
668,0.0
2,1, 7,21, 0, 5,20.00,30.00,SummerDesignDay
8,13.470289340350983
10,3832468.1078789329
631,0.0
668,0.0
2,1, 7,21, 0, 5,30.00,40.00,SummerDesignDay
8,13.454493322631063
10,3832468.1078789329
631,0.0
668,0.0
2,1, 7,21, 0, 5,40.00,50.00,SummerDesignDay
8,13.438688835118548
10,3832468.1078789329
631,0.0
668,0.0
2,1, 7,21, 0, 5,50.00,60.00,SummerDesignDay
8,13.422888173889437
10,3832468.1078789329
631,0.0
668,0.0
2,1, 7,21, 0, 5, 0.00,60.00,SummerDesignDay
357,21.17941098512703
397,21.1572902626974
437,21.080564110587316
477,21.080723817623129
517,21.179095294747069
2,1, 7,21, 0, 6, 0.00,10.00,SummerDesignDay
8,13.438688835118548
10,3832468.1078789329
631,0.0
668,0.0
2,1, 7,21, 0, 6,10.00,20.00,SummerDesignDay
8,13.454493322631063
10,3832468.1078789329
631,0.0
668,0.0
2,1, 7,21, 0, 6,20.00,30.00,SummerDesignDay
8,13.470289340350983
10,3832468.1078789329
631,0.0
668,0.0
2,1, 7,21, 0, 6,30.00,40.00,SummerDesignDay
8,13.486076034032447
10,3832468.1078789329
631,0.0
668,0.0
2,1, 7,21, 0, 6,40.00,50.00,SummerDesignDay
8,13.50185415824011
10,3832468.1078789329
631,0.0
668,0.0
2,1, 7,21, 0, 6,50.00,60.00,SummerDesignDay
8,13.517617463812285
10,3832468.1078789329
631,0.0
668,0.0
2,1, 7,21, 0, 6, 0.00,60.00,SummerDesignDay
357,21.0691253885569
397,21.040381513747499
437,20.971202278414745
477,20.97128882242784
517,21.068981377403504
2,1, 7,21, 0, 7, 0.00,10.00,SummerDesignDay
8,13.572736920571789
10,3832468.1078789329
631,0.0
668,0.0
2,1, 7,21, 0, 7,10.00,20.00,SummerDesignDay
8,13.627748229152554
10,3832468.1078789329
631,0.0
668,0.0
2,1, 7,21, 0, 7,20.00,30.00,SummerDesignDay
8,13.682651961920304
10,3832468.1078789329
631,0.0
668,0.0
2,1, 7,21, 0, 7,30.00,40.00,SummerDesignDay
8,13.737448093244995
10,3832468.1078789329
631,0.0
668,0.0
2,1, 7,21, 0, 7,40.00,50.00,SummerDesignDay
8,13.792137011831216
10,3832468.1078789329
631,0.0
668,0.0
2,1, 7,21, 0, 7,50.00,60.00,SummerDesignDay
8,13.846719282840333
10,3832468.1078789329
631,0.0
668,0.0
2,1, 7,21, 0, 7, 0.00,60.00,SummerDesignDay
357,21.058841135376477
397,21.02543165353109
437,20.961248974653743
477,20.961297185857914
517,21.058771974958345
2,1, 7,21, 0, 8, 0.00,10.00,SummerDesignDay
8,13.978831900527043
10,17594853.57798846
631,77966278.07000993
668,0.0
2,1, 7,21, 0, 8,10.00,20.00,SummerDesignDay
8,14.110321014287419
10,17594853.57798846
631,0.0
668,0.0
2,1, 7,21, 0, 8,20.00,30.00,SummerDesignDay
8,14.241191509616986
10,17594853.57798846
631,4621689.200047598
668,0.0
2,1, 7,21, 0, 8,30.00,40.00,SummerDesignDay
8,14.371447531304272
10,17594853.57798846
631,2180072.5715652748
668,0.0
2,1, 7,21, 0, 8,40.00,50.00,SummerDesignDay
8,14.501093766564925
10,17594853.57798846
631,0.0
668,0.0
2,1, 7,21, 0, 8,50.00,60.00,SummerDesignDay
8,14.630134792273804
10,17594853.57798846
631,0.0
668,0.0
2,1, 7,21, 0, 8, 0.00,60.00,SummerDesignDay
357,22.206649548978477
397,22.192869409713965
437,22.15394076297731
477,22.153963401554774
517,22.192832086594917
2,1, 7,21, 0, 9, 0.00,10.00,SummerDesignDay
8,14.773641492809972
10,46919609.541302558
631,0.0
668,0.0
2,1, 7,21, 0, 9,10.00,20.00,SummerDesignDay
8,14.91640948124148
10,46919609.541302558
631,0.0
668,0.0
2,1, 7,21, 0, 9,20.00,30.00,SummerDesignDay
8,15.05843890714102
10,46919609.541302558
631,0.0
668,0.0
2,1, 7,21, 0, 9,30.00,40.00,SummerDesignDay
8,15.199735893563798
10,46919609.541302558
631,0.0
668,0.0
2,1, 7,21, 0, 9,40.00,50.00,SummerDesignDay
8,15.340306256439395
10,46919609.541302558
631,0.0
668,21182410.376260237
2,1, 7,21, 0, 9,50.00,60.00,SummerDesignDay
8,15.48015101768072
10,46919609.541302558
631,0.0
668,20657406.934748006
2,1, 7,21, 0, 9, 0.00,60.00,SummerDesignDay
357,23.521271982405549
397,23.48257215086714
437,23.060235028963804
477,23.061002524839667
517,23.460911814626745
2,1, 7,21, 0,10, 0.00,10.00,SummerDesignDay
8,15.60467292907716
10,52784560.7339654
631,0.0
668,32546121.83629196
2,1, 7,21, 0,10,10.00,20.00,SummerDesignDay
8,15.72862731650033
10,52784560.7339654
631,0.0
668,42772211.70934522
2,1, 7,21, 0,10,20.00,30.00,SummerDesignDay
8,15.852017409284228
10,52784560.7339654
631,0.0
668,41313038.96784205
2,1, 7,21, 0,10,30.00,40.00,SummerDesignDay
8,15.974848118364367
10,52784560.7339654
631,0.0
668,44097605.25185589
2,1, 7,21, 0,10,40.00,50.00,SummerDesignDay
8,16.097123145563505
10,52784560.7339654
631,0.0
668,45596150.06075134
2,1, 7,21, 0,10,50.00,60.00,SummerDesignDay
8,16.218846351168599
10,52784560.7339654
631,0.0
668,46887295.70703986
2,1, 7,21, 0,10, 0.00,60.00,SummerDesignDay
357,23.99999999604684
397,23.999999997138806
437,23.999510031746469
477,23.999517378387936
517,23.999999997465438
2,1, 7,21, 0,11, 0.00,10.00,SummerDesignDay
8,16.325793027093189
10,52784560.7339654
631,0.0
668,47941607.96480977
2,1, 7,21, 0,11,10.00,20.00,SummerDesignDay
8,16.432322158488288
10,52784560.7339654
631,0.0
668,48908345.47332186
2,1, 7,21, 0,11,20.00,30.00,SummerDesignDay
8,16.538424180249178
10,52784560.7339654
631,0.0
668,49779313.9215305
2,1, 7,21, 0,11,30.00,40.00,SummerDesignDay
8,16.644108396469087
10,52784560.7339654
631,0.0
668,50599814.95942259
2,1, 7,21, 0,11,40.00,50.00,SummerDesignDay
8,16.749376736593655
10,52784560.7339654
631,0.0
668,51361758.014744039
2,1, 7,21, 0,11,50.00,60.00,SummerDesignDay
8,16.854232613237156
10,52784560.7339654
631,0.0
668,52098626.05319838
2,1, 7,21, 0,11, 0.00,60.00,SummerDesignDay
357,24.000000000000019
397,24.0
437,23.999999999999905
477,23.999999999999898
517,24.000000000000005
2,1, 7,21, 0,12, 0.00,10.00,SummerDesignDay
8,16.92390823520069
10,52784560.7339654
631,0.0
668,52575018.39531967
2,1, 7,21, 0,12,10.00,20.00,SummerDesignDay
8,16.99340178950456
10,52784560.7339654
631,0.0
668,53041149.11149464
2,1, 7,21, 0,12,20.00,30.00,SummerDesignDay
8,17.06272006743463
10,52784560.7339654
631,0.0
668,53502484.55020413
2,1, 7,21, 0,12,30.00,40.00,SummerDesignDay
8,17.131853229172639
10,52784560.7339654
631,0.0
668,53956014.92177896
2,1, 7,21, 0,12,40.00,50.00,SummerDesignDay
8,17.200807172194087
10,52784560.7339654
631,0.0
668,54402510.25992477
2,1, 7,21, 0,12,50.00,60.00,SummerDesignDay
8,17.269582116758607
10,52784560.7339654
631,0.0
668,54843502.6172616
2,1, 7,21, 0,12, 0.00,60.00,SummerDesignDay
357,24.0
397,24.000000000000019
437,24.00000000000001
477,24.000000000000019
517,24.000000000000015
2,1, 7,21, 0,13, 0.00,10.00,SummerDesignDay
8,17.32447360221357
10,52784560.7339654
631,0.0
668,52843750.00258055
2,1, 7,21, 0,13,10.00,20.00,SummerDesignDay
8,17.379251291230806
10,52784560.7339654
631,0.0
668,53027026.88840558
2,1, 7,21, 0,13,20.00,30.00,SummerDesignDay
8,17.433921312061729
10,52784560.7339654
631,0.0
668,53305195.363947119
2,1, 7,21, 0,13,30.00,40.00,SummerDesignDay
8,17.488473222557489
10,52784560.7339654
631,0.0
668,53581209.41642254
2,1, 7,21, 0,13,40.00,50.00,SummerDesignDay
8,17.542913447755134
10,52784560.7339654
631,0.0
668,53862859.83779319
2,1, 7,21, 0,13,50.00,60.00,SummerDesignDay
8,17.59724609886134
10,52784560.7339654
631,0.0
668,54152147.44538303
2,1, 7,21, 0,13, 0.00,60.00,SummerDesignDay
357,23.999999999999998
397,24.000000000000019
437,24.000000000000005
477,24.000000000000005
517,24.000000000000005
2,1, 7,21, 0,14, 0.00,10.00,SummerDesignDay
8,17.6311450462694
10,52784560.7339654
631,0.0
668,54314728.1682834
2,1, 7,21, 0,14,10.00,20.00,SummerDesignDay
8,17.665000449016245
10,52784560.7339654
631,0.0
668,54483377.94659031
2,1, 7,21, 0,14,20.00,30.00,SummerDesignDay
8,17.698812743128934
10,52784560.7339654
631,0.0
668,54657184.59560253
2,1, 7,21, 0,14,30.00,40.00,SummerDesignDay
8,17.732582050940107
10,52784560.7339654
631,0.0
668,54835674.20283656
2,1, 7,21, 0,14,40.00,50.00,SummerDesignDay
8,17.766307345121004
10,52784560.7339654
631,0.0
668,55018315.24973562
2,1, 7,21, 0,14,50.00,60.00,SummerDesignDay
8,17.79999023167558
10,52784560.7339654
631,0.0
668,55204718.01658865
2,1, 7,21, 0,14, 0.00,60.00,SummerDesignDay
357,24.000000000000005
397,24.000000000000005
437,24.000000000000005
477,24.00000000000001
517,23.999999999999998
2,1, 7,21, 0,15, 0.00,10.00,SummerDesignDay
8,17.79999023167558
10,52784560.7339654
631,0.0
668,57436201.29764642
2,1, 7,21, 0,15,10.00,20.00,SummerDesignDay
8,17.79999023167558
10,52784560.7339654
631,0.0
668,57567691.91446464
2,1, 7,21, 0,15,20.00,30.00,SummerDesignDay
8,17.79999023167558
10,52784560.7339654
631,0.0
668,57608046.53338646
2,1, 7,21, 0,15,30.00,40.00,SummerDesignDay
8,17.79999023167558
10,52784560.7339654
631,0.0
668,57658753.272156599
2,1, 7,21, 0,15,40.00,50.00,SummerDesignDay
8,17.79999023167558
10,52784560.7339654
631,0.0
668,57705737.47400102
2,1, 7,21, 0,15,50.00,60.00,SummerDesignDay
8,17.79999023167558
10,52784560.7339654
631,0.0
668,57741046.97918836
2,1, 7,21, 0,15, 0.00,60.00,SummerDesignDay
357,24.000000000000015
397,24.00000000000001
437,24.00000000000001
477,24.00000000000001
517,24.000000000000015
2,1, 7,21, 0,16, 0.00,10.00,SummerDesignDay
8,17.759562446305357
10,52784560.7339654
631,0.0
668,57504142.61996451
2,1, 7,21, 0,16,10.00,20.00,SummerDesignDay
8,17.71907809634183
10,52784560.7339654
631,0.0
668,57264801.033282268
2,1, 7,21, 0,16,20.00,30.00,SummerDesignDay
8,17.67853788661001
10,52784560.7339654
631,0.0
668,57022844.60622732
2,1, 7,21, 0,16,30.00,40.00,SummerDesignDay
8,17.63791796367351
10,52784560.7339654
631,0.0
668,56778364.78061748
2,1, 7,21, 0,16,40.00,50.00,SummerDesignDay
8,17.59724609886134
10,52784560.7339654
631,0.0
668,56531541.72922937
2,1, 7,21, 0,16,50.00,60.00,SummerDesignDay
8,17.55650676726033
10,52784560.7339654
631,0.0
668,56282515.426585119
2,1, 7,21, 0,16, 0.00,60.00,SummerDesignDay
357,24.00000000000001
397,23.999999999999998
437,24.000000000000015
477,24.00000000000001
517,24.0
2,1, 7,21, 0,17, 0.00,10.00,SummerDesignDay
8,17.50209486331892
10,52784560.7339654
631,0.0
668,55942596.08087326
2,1, 7,21, 0,17,10.00,20.00,SummerDesignDay
8,17.447570789624618
10,52784560.7339654
631,0.0
668,55600928.25284296
2,1, 7,21, 0,17,20.00,30.00,SummerDesignDay
8,17.392929544208135
10,52784560.7339654
631,0.0
668,55257676.745106238
2,1, 7,21, 0,17,30.00,40.00,SummerDesignDay
8,17.33818013976614
10,52784560.7339654
631,0.0
668,54913094.99318342
2,1, 7,21, 0,17,40.00,50.00,SummerDesignDay
8,17.283317298559309
10,52784560.7339654
631,0.0
668,54567302.743383068
2,1, 7,21, 0,17,50.00,60.00,SummerDesignDay
8,17.22833552437677
10,52784560.7339654
631,0.0
668,54220411.78460565
2,1, 7,21, 0,17, 0.00,60.00,SummerDesignDay
357,24.00000000000001
397,24.0
437,24.0
477,24.0
517,24.00000000000001
2,1, 7,21, 0,18, 0.00,10.00,SummerDesignDay
8,17.159453019160176
10,47519604.54900092
631,0.0
668,48795985.9003813
2,1, 7,21, 0,18,10.00,20.00,SummerDesignDay
8,17.090391773337136
10,47519604.54900092
631,0.0
668,47748603.56562778
2,1, 7,21, 0,18,20.00,30.00,SummerDesignDay
8,17.021151077964786
10,47519604.54900092
631,0.0
668,47247081.51487407
2,1, 7,21, 0,18,30.00,40.00,SummerDesignDay
8,16.951729380464653
10,47519604.54900092
631,0.0
668,46683643.63280886
2,1, 7,21, 0,18,40.00,50.00,SummerDesignDay
8,16.882126503829249
10,47519604.54900092
631,0.0
668,46151016.225436378
2,1, 7,21, 0,18,50.00,60.00,SummerDesignDay
8,16.812341807494034
10,47519604.54900092
631,0.0
668,45632148.13175927
2,1, 7,21, 0,18, 0.00,60.00,SummerDesignDay
357,24.0
397,24.000000000000015
437,24.00000000000001
477,24.0
517,24.00000000000001
2,1, 7,21, 0,19, 0.00,10.00,SummerDesignDay
8,16.707321072823203
10,29324755.9633141
631,0.0
668,29529766.013405965
2,1, 7,21, 0,19,10.00,20.00,SummerDesignDay
8,16.601881826644556
10,29324755.9633141
631,0.0
668,27424113.375715078
2,1, 7,21, 0,19,20.00,30.00,SummerDesignDay
8,16.496030555252849
10,29324755.9633141
631,0.0
668,26429263.68786548
2,1, 7,21, 0,19,30.00,40.00,SummerDesignDay
8,16.389760181474104
10,29324755.9633141
631,0.0
668,25412409.355056235
2,1, 7,21, 0,19,40.00,50.00,SummerDesignDay
8,16.283067654262039
10,29324755.9633141
631,0.0
668,24389437.427712844
2,1, 7,21, 0,19,50.00,60.00,SummerDesignDay
8,16.17595057957811
10,29324755.9633141
631,0.0
668,23357217.59987306
2,1, 7,21, 0,19, 0.00,60.00,SummerDesignDay
357,24.000000000000015
397,24.000000000000005
437,24.0
477,24.0
517,24.00000000000001
2,1, 7,21, 0,20, 0.00,10.00,SummerDesignDay
8,16.097123145563505
10,17594853.57798846
631,0.0
668,12572869.213340031
2,1, 7,21, 0,20,10.00,20.00,SummerDesignDay
8,16.018070242471564
10,17594853.57798846
631,0.0
668,10812755.318388742
2,1, 7,21, 0,20,20.00,30.00,SummerDesignDay
8,15.938779752340516
10,17594853.57798846
631,0.0
668,9658118.81574792
2,1, 7,21, 0,20,30.00,40.00,SummerDesignDay
8,15.85926152575189
10,17594853.57798846
631,0.0
668,8572625.386952503
2,1, 7,21, 0,20,40.00,50.00,SummerDesignDay
8,15.779503718563929
10,17594853.57798846
631,0.0
668,7548681.088684382
2,1, 7,21, 0,20,50.00,60.00,SummerDesignDay
8,15.699515709672767
10,17594853.57798846
631,0.0
668,6594804.554501271
2,1, 7,21, 0,20, 0.00,60.00,SummerDesignDay
357,24.0
397,24.00000000000001
437,24.0
477,24.0
517,24.0
2,1, 7,21, 0,21, 0.00,10.00,SummerDesignDay
8,15.63389147320404
10,17594853.57798846
631,0.0
668,5809405.950890581
2,1, 7,21, 0,21,10.00,20.00,SummerDesignDay
8,15.56810827419793
10,17594853.57798846
631,0.0
668,5072618.360508925
2,1, 7,21, 0,21,20.00,30.00,SummerDesignDay
8,15.502170882753524
10,17594853.57798846
631,0.0
668,4376995.457413284
2,1, 7,21, 0,21,30.00,40.00,SummerDesignDay
8,15.436068032613852
10,17594853.57798846
631,0.0
668,3837575.2351667725
2,1, 7,21, 0,21,40.00,50.00,SummerDesignDay
8,15.369804371206009
10,17594853.57798846
631,0.0
668,3416264.2498705137
2,1, 7,21, 0,21,50.00,60.00,SummerDesignDay
8,15.303384603594449
10,17594853.57798846
631,0.0
668,2998428.6205613447
2,1, 7,21, 0,21, 0.00,60.00,SummerDesignDay
357,24.0
397,24.000000000000005
437,23.992601092141557
477,23.99265141438669
517,24.000000000000005
2,1, 7,21, 0,22, 0.00,10.00,SummerDesignDay
8,15.236797685071274
10,6464946.200361171
631,0.0
668,0.0
2,1, 7,21, 0,22,10.00,20.00,SummerDesignDay
8,15.170047891787942
10,6464946.200361171
631,0.0
668,0.0
2,1, 7,21, 0,22,20.00,30.00,SummerDesignDay
8,15.103134826860483
10,6464946.200361171
631,0.0
668,0.0
2,1, 7,21, 0,22,30.00,40.00,SummerDesignDay
8,15.036063385178485
10,6464946.200361171
631,0.0
668,0.0
2,1, 7,21, 0,22,40.00,50.00,SummerDesignDay
8,14.968821767219835
10,6464946.200361171
631,0.0
668,0.0
2,1, 7,21, 0,22,50.00,60.00,SummerDesignDay
8,14.90141525878635
10,6464946.200361171
631,0.0
668,0.0
2,1, 7,21, 0,22, 0.00,60.00,SummerDesignDay
357,23.742581277198128
397,23.761983637934376
437,23.62308091638894
477,23.623379909771299
517,23.726025651150523
2,1, 7,21, 0,23, 0.00,10.00,SummerDesignDay
8,14.848873673278373
10,6464946.200361171
631,0.0
668,0.0
2,1, 7,21, 0,23,10.00,20.00,SummerDesignDay
8,14.796237168136719
10,6464946.200361171
631,0.0
668,0.0
2,1, 7,21, 0,23,20.00,30.00,SummerDesignDay
8,14.743494321455645
10,6464946.200361171
631,0.0
668,0.0
2,1, 7,21, 0,23,30.00,40.00,SummerDesignDay
8,14.690649975253665
10,6464946.200361171
631,0.0
668,0.0
2,1, 7,21, 0,23,40.00,50.00,SummerDesignDay
8,14.637704281233117
10,6464946.200361171
631,0.0
668,0.0
2,1, 7,21, 0,23,50.00,60.00,SummerDesignDay
8,14.584656914839757
10,6464946.200361171
631,0.0
668,0.0
2,1, 7,21, 0,23, 0.00,60.00,SummerDesignDay
357,23.245349590656859
397,23.275550070162685
437,23.04353580630645
477,23.044167376629415
517,23.20860189467766
2,1, 7,21, 0,24, 0.00,10.00,SummerDesignDay
8,14.531507212058875
10,3832468.1078789329
631,0.0
668,0.0
2,1, 7,21, 0,24,10.00,20.00,SummerDesignDay
8,14.47825496413355
10,3832468.1078789329
631,0.0
668,0.0
2,1, 7,21, 0,24,20.00,30.00,SummerDesignDay
8,14.4249000133173
10,3832468.1078789329
631,0.0
668,0.0
2,1, 7,21, 0,24,30.00,40.00,SummerDesignDay
8,14.371447531304272
10,3832468.1078789329
631,0.0
668,0.0
2,1, 7,21, 0,24,40.00,50.00,SummerDesignDay
8,14.31788619902223
10,3832468.1078789329
631,0.0
668,0.0
2,1, 7,21, 0,24,50.00,60.00,SummerDesignDay
8,14.264220970176066
10,3832468.1078789329
631,0.0
668,0.0
2,1, 7,21, 0,24, 0.00,60.00,SummerDesignDay
357,22.692021689963935
397,22.720516794551015
437,22.5152671820625
477,22.516399711031835
517,22.667459425961196
3,1, 7,21, 0,SummerDesignDay
358,46.48483589520196,42.09844629741669,14,60,53.904867630607039, 7,20
398,46.49927085345788,42.12604799331731,14,60,54.00962037292574, 7,20
438,46.771530892571629,41.886820667029009,19,60,54.241274072101358, 7,20
478,46.76949674211556,41.8847491079044,19,60,54.240948068518019, 7,20
518,45.82915838132698,41.11968725807758,20,10,53.8257319146843, 7,20
4,1, 7
7,22.2505,16.5,21, 5,60,28.9,21,14,60
1,FORT MCMURRAY AP ANN HTG 99.6% CONDNS DB,  56.65,-111.22,  -7.00, 369.10
2,1, 1,21, 0, 1, 0.00,10.00,WinterDesignDay
8,-36.2
10,3832468.1078789329
631,104365830.50431827
668,0.0
2,1, 1,21, 0, 1,10.00,20.00,WinterDesignDay
8,-36.2
10,3832468.1078789329
631,104466890.42750739
668,0.0
2,1, 1,21, 0, 1,20.00,30.00,WinterDesignDay
8,-36.2
10,3832468.1078789329
631,104536751.2495029
668,0.0
2,1, 1,21, 0, 1,30.00,40.00,WinterDesignDay
8,-36.2
10,3832468.1078789329
631,104596958.2082955
668,0.0
2,1, 1,21, 0, 1,40.00,50.00,WinterDesignDay
8,-36.2
10,3832468.1078789329
631,104651840.62636495
668,0.0
2,1, 1,21, 0, 1,50.00,60.00,WinterDesignDay
8,-36.2
10,3832468.1078789329
631,104699341.78524287
668,0.0
2,1, 1,21, 0, 1, 0.00,60.00,WinterDesignDay
357,18.000000000000005
397,18.000000000000005
437,18.000000000000005
477,18.000000000000005
517,18.000000000000005
2,1, 1,21, 0, 2, 0.00,10.00,WinterDesignDay
8,-36.2
10,3832468.1078789329
631,104739699.95925156
668,0.0
2,1, 1,21, 0, 2,10.00,20.00,WinterDesignDay
8,-36.2
10,3832468.1078789329
631,104773796.1462195
668,0.0
2,1, 1,21, 0, 2,20.00,30.00,WinterDesignDay
8,-36.2
10,3832468.1078789329
631,104802596.19672702
668,0.0
2,1, 1,21, 0, 2,30.00,40.00,WinterDesignDay
8,-36.2
10,3832468.1078789329
631,104826977.05456187
668,0.0
2,1, 1,21, 0, 2,40.00,50.00,WinterDesignDay
8,-36.2
10,3832468.1078789329
631,104841662.99242962
668,0.0
2,1, 1,21, 0, 2,50.00,60.00,WinterDesignDay
8,-36.2
10,3832468.1078789329
631,104853762.35789684
668,0.0
2,1, 1,21, 0, 2, 0.00,60.00,WinterDesignDay
357,18.000000000000008
397,18.000000000000005
437,18.000000000000008
477,18.000000000000005
517,18.000000000000005
2,1, 1,21, 0, 3, 0.00,10.00,WinterDesignDay
8,-36.2
10,3832468.1078789329
631,104865992.42925754
668,0.0
2,1, 1,21, 0, 3,10.00,20.00,WinterDesignDay
8,-36.2
10,3832468.1078789329
631,104877629.46482802
668,0.0
2,1, 1,21, 0, 3,20.00,30.00,WinterDesignDay
8,-36.2
10,3832468.1078789329
631,104888474.79822771
668,0.0
2,1, 1,21, 0, 3,30.00,40.00,WinterDesignDay
8,-36.2
10,3832468.1078789329
631,104898395.95346719
668,0.0
2,1, 1,21, 0, 3,40.00,50.00,WinterDesignDay
8,-36.2
10,3832468.1078789329
631,104907420.09190455
668,0.0
2,1, 1,21, 0, 3,50.00,60.00,WinterDesignDay
8,-36.2
10,3832468.1078789329
631,104915580.27300994
668,0.0
2,1, 1,21, 0, 3, 0.00,60.00,WinterDesignDay
357,18.000000000000005
397,18.000000000000005
437,18.000000000000005
477,18.000000000000005
517,18.000000000000005
2,1, 1,21, 0, 4, 0.00,10.00,WinterDesignDay
8,-36.2
10,3832468.1078789329
631,104922952.29796568
668,0.0
2,1, 1,21, 0, 4,10.00,20.00,WinterDesignDay
8,-36.2
10,3832468.1078789329
631,104929603.97487031
668,0.0
2,1, 1,21, 0, 4,20.00,30.00,WinterDesignDay
8,-36.2
10,3832468.1078789329
631,104935610.00597042
668,0.0
2,1, 1,21, 0, 4,30.00,40.00,WinterDesignDay
8,-36.2
10,3832468.1078789329
631,104941035.70111133
668,0.0
2,1, 1,21, 0, 4,40.00,50.00,WinterDesignDay
8,-36.2
10,3832468.1078789329
631,104945943.3116709
668,0.0
2,1, 1,21, 0, 4,50.00,60.00,WinterDesignDay
8,-36.2
10,3832468.1078789329
631,104950387.17539087
668,0.0
2,1, 1,21, 0, 4, 0.00,60.00,WinterDesignDay
357,18.000000000000005
397,18.000000000000005
437,18.000000000000005
477,18.0
517,18.000000000000005
2,1, 1,21, 0, 5, 0.00,10.00,WinterDesignDay
8,-36.2
10,3832468.1078789329
631,104954416.64119554
668,0.0
2,1, 1,21, 0, 5,10.00,20.00,WinterDesignDay
8,-36.2
10,3832468.1078789329
631,104958074.92230807
668,0.0
2,1, 1,21, 0, 5,20.00,30.00,WinterDesignDay
8,-36.2
10,3832468.1078789329
631,104961400.59886654
668,0.0
2,1, 1,21, 0, 5,30.00,40.00,WinterDesignDay
8,-36.2
10,3832468.1078789329
631,104964427.60337708
668,0.0
2,1, 1,21, 0, 5,40.00,50.00,WinterDesignDay
8,-36.2
10,3832468.1078789329
631,104967186.08441457
668,0.0
2,1, 1,21, 0, 5,50.00,60.00,WinterDesignDay
8,-36.2
10,3832468.1078789329
631,104969702.68148995
668,0.0
2,1, 1,21, 0, 5, 0.00,60.00,WinterDesignDay
357,18.000000000000005
397,18.000000000000005
437,18.000000000000005
477,18.000000000000005
517,18.000000000000005
2,1, 1,21, 0, 6, 0.00,10.00,WinterDesignDay
8,-36.2
10,3832468.1078789329
631,104972001.07146652
668,0.0
2,1, 1,21, 0, 6,10.00,20.00,WinterDesignDay
8,-36.2
10,3832468.1078789329
631,104974102.27067533
668,0.0
2,1, 1,21, 0, 6,20.00,30.00,WinterDesignDay
8,-36.2
10,3832468.1078789329
631,104976025.00533538
668,0.0
2,1, 1,21, 0, 6,30.00,40.00,WinterDesignDay
8,-36.2
10,3832468.1078789329
631,104977785.97022677
668,0.0
2,1, 1,21, 0, 6,40.00,50.00,WinterDesignDay
8,-36.2
10,3832468.1078789329
631,104979400.09131925
668,0.0
2,1, 1,21, 0, 6,50.00,60.00,WinterDesignDay
8,-36.2
10,3832468.1078789329
631,104980880.7307756
668,0.0
2,1, 1,21, 0, 6, 0.00,60.00,WinterDesignDay
357,18.0
397,18.000000000000005
437,18.0
477,18.000000000000005
517,18.0
2,1, 1,21, 0, 7, 0.00,10.00,WinterDesignDay
8,-36.2
10,3832468.1078789329
631,240238590.285528
668,0.0
2,1, 1,21, 0, 7,10.00,20.00,WinterDesignDay
8,-36.2
10,3832468.1078789329
631,0.0
668,0.0
2,1, 1,21, 0, 7,20.00,30.00,WinterDesignDay
8,-36.2
10,3832468.1078789329
631,153298002.91324548
668,0.0
2,1, 1,21, 0, 7,30.00,40.00,WinterDesignDay
8,-36.2
10,3832468.1078789329
631,125424940.0799163
668,0.0
2,1, 1,21, 0, 7,40.00,50.00,WinterDesignDay
8,-36.2
10,3832468.1078789329
631,119334466.40165362
668,0.0
2,1, 1,21, 0, 7,50.00,60.00,WinterDesignDay
8,-36.2
10,3832468.1078789329
631,120297225.18759866
668,0.0
2,1, 1,21, 0, 7, 0.00,60.00,WinterDesignDay
357,20.06579813147502
397,20.06582400151433
437,20.064083272236073
477,20.064083281025366
517,20.065807502918856
2,1, 1,21, 0, 8, 0.00,10.00,WinterDesignDay
8,-36.2
10,17594853.57798846
631,237548024.9861405
668,0.0
2,1, 1,21, 0, 8,10.00,20.00,WinterDesignDay
8,-36.2
10,17594853.57798846
631,0.0
668,0.0
2,1, 1,21, 0, 8,20.00,30.00,WinterDesignDay
8,-36.2
10,17594853.57798846
631,168056016.4355236
668,0.0
2,1, 1,21, 0, 8,30.00,40.00,WinterDesignDay
8,-36.2
10,17594853.57798846
631,125131575.42076022
668,0.0
2,1, 1,21, 0, 8,40.00,50.00,WinterDesignDay
8,-36.2
10,17594853.57798846
631,123958226.37183061
668,0.0
2,1, 1,21, 0, 8,50.00,60.00,WinterDesignDay
8,-36.2
10,17594853.57798846
631,123455473.07414685
668,0.0
2,1, 1,21, 0, 8, 0.00,60.00,WinterDesignDay
357,22.058649500432023
397,22.055785799645979
437,22.044666589746006
477,22.04466838363666
517,22.057595040705868
2,1, 1,21, 0, 9, 0.00,10.00,WinterDesignDay
8,-36.2
10,46919609.541302558
631,100938341.77377485
668,0.0
2,1, 1,21, 0, 9,10.00,20.00,WinterDesignDay
8,-36.2
10,46919609.541302558
631,99472610.97057304
668,0.0
2,1, 1,21, 0, 9,20.00,30.00,WinterDesignDay
8,-36.2
10,46919609.541302558
631,98291991.81653935
668,0.0
2,1, 1,21, 0, 9,30.00,40.00,WinterDesignDay
8,-36.2
10,46919609.541302558
631,97251551.71890746
668,0.0
2,1, 1,21, 0, 9,40.00,50.00,WinterDesignDay
8,-36.2
10,46919609.541302558
631,96334354.43973655
668,0.0
2,1, 1,21, 0, 9,50.00,60.00,WinterDesignDay
8,-36.2
10,46919609.541302558
631,95591434.6888186
668,0.0
2,1, 1,21, 0, 9, 0.00,60.00,WinterDesignDay
357,22.000000000071656
397,22.000000000057896
437,22.000000000007529
477,22.000000000007537
517,22.000000000066703
2,1, 1,21, 0,10, 0.00,10.00,WinterDesignDay
8,-36.2
10,52784560.7339654
631,90030412.87998857
668,0.0
2,1, 1,21, 0,10,10.00,20.00,WinterDesignDay
8,-36.2
10,52784560.7339654
631,88931510.93088982
668,0.0
2,1, 1,21, 0,10,20.00,30.00,WinterDesignDay
8,-36.2
10,52784560.7339654
631,88446629.70914883
668,0.0
2,1, 1,21, 0,10,30.00,40.00,WinterDesignDay
8,-36.2
10,52784560.7339654
631,88015093.12204539
668,0.0
2,1, 1,21, 0,10,40.00,50.00,WinterDesignDay
8,-36.2
10,52784560.7339654
631,87670665.18736719
668,0.0
2,1, 1,21, 0,10,50.00,60.00,WinterDesignDay
8,-36.2
10,52784560.7339654
631,87388252.98688543
668,0.0
2,1, 1,21, 0,10, 0.00,60.00,WinterDesignDay
357,22.000000000000019
397,22.00000000000001
437,22.00000000000001
477,22.000000000000015
517,22.000000000000015
2,1, 1,21, 0,11, 0.00,10.00,WinterDesignDay
8,-36.2
10,52784560.7339654
631,87178528.91490354
668,0.0
2,1, 1,21, 0,11,10.00,20.00,WinterDesignDay
8,-36.2
10,52784560.7339654
631,87022665.98533298
668,0.0
2,1, 1,21, 0,11,20.00,30.00,WinterDesignDay
8,-36.2
10,52784560.7339654
631,86888372.14575285
668,0.0