Program Version,EnergyPlus, Version 8.9.0-eba93e8e1b, YMD=2019.03.20 18:00
1,5,Environment Title[],Latitude[deg],Longitude[deg],Time Zone[],Elevation[m]
2,8,Day of Simulation[],Month[],Day of Month[],DST Indicator[1=yes 0=no],Hour[],StartMinute[],EndMinute[],DayType
3,5,Cumulative Day of Simulation[],Month[],Day of Month[],DST Indicator[1=yes 0=no],DayType  ! When Daily Report Variables Requested
4,2,Cumulative Days of Simulation[],Month[]  ! When Monthly Report Variables Requested
5,1,Cumulative Days of Simulation[] ! When Run Period Report Variables Requested
6,1,Calendar Year of Simulation[] ! When Annual Report Variables Requested
7,9,Environment,Site Outdoor Air Drybulb Temperature [C] !Monthly [Value,Min,Day,Hour,Minute,Max,Day,Hour,Minute]
8,1,Environment,Site Outdoor Air Wetbulb Temperature [C] !TimeStep
771,1,MFG - CORR. < 2.4M-SCH-I-SPACE FUNCTION ZN,Zone Air Temperature [C] !Hourly
772,7,MFG - CORR. < 2.4M-SCH-I-SPACE FUNCTION ZN,Zone Air Relative Humidity [%] !Daily [Value,Min,Hour,Minute,Max,Hour,Minute]
811,1,MFG - CORR. >= 2.4M-SCH-A-SPACE FUNCTION ZN,Zone Air Temperature [C] !Hourly
812,7,MFG - CORR. >= 2.4M-SCH-A-SPACE FUNCTION ZN,Zone Air Relative Humidity [%] !Daily [Value,Min,Hour,Minute,Max,Hour,Minute]
851,1,MFG - CORR. >= 2.4M-SCH-B-SPACE FUNCTION ZN,Zone Air Temperature [C] !Hourly
852,7,MFG - CORR. >= 2.4M-SCH-B-SPACE FUNCTION ZN,Zone Air Relative Humidity [%] !Daily [Value,Min,Hour,Minute,Max,Hour,Minute]
891,1,MFG - CORR. >= 2.4M-SCH-C-SPACE FUNCTION ZN,Zone Air Temperature [C] !Hourly
892,7,MFG - CORR. >= 2.4M-SCH-C-SPACE FUNCTION ZN,Zone Air Relative Humidity [%] !Daily [Value,Min,Hour,Minute,Max,Hour,Minute]
931,1,MFG - CORR. >= 2.4M-SCH-D-SPACE FUNCTION ZN,Zone Air Temperature [C] !Hourly
932,7,MFG - CORR. >= 2.4M-SCH-D-SPACE FUNCTION ZN,Zone Air Relative Humidity [%] !Daily [Value,Min,Hour,Minute,Max,Hour,Minute]
971,1,MFG - CORR. >= 2.4M-SCH-E-SPACE FUNCTION ZN,Zone Air Temperature [C] !Hourly
972,7,MFG - CORR. >= 2.4M-SCH-E-SPACE FUNCTION ZN,Zone Air Relative Humidity [%] !Daily [Value,Min,Hour,Minute,Max,Hour,Minute]
1011,1,MFG - CORR. >= 2.4M-SCH-F-SPACE FUNCTION ZN,Zone Air Temperature [C] !Hourly
1012,7,MFG - CORR. >= 2.4M-SCH-F-SPACE FUNCTION ZN,Zone Air Relative Humidity [%] !Daily [Value,Min,Hour,Minute,Max,Hour,Minute]
1051,1,MFG - CORR. >= 2.4M-SCH-G-SPACE FUNCTION ZN,Zone Air Temperature [C] !Hourly
1052,7,MFG - CORR. >= 2.4M-SCH-G-SPACE FUNCTION ZN,Zone Air Relative Humidity [%] !Daily [Value,Min,Hour,Minute,Max,Hour,Minute]
1091,1,MFG - CORR. >= 2.4M-SCH-H-SPACE FUNCTION ZN,Zone Air Temperature [C] !Hourly
1092,7,MFG - CORR. >= 2.4M-SCH-H-SPACE FUNCTION ZN,Zone Air Relative Humidity [%] !Daily [Value,Min,Hour,Minute,Max,Hour,Minute]
1131,1,MFG - CORR. >= 2.4M-SCH-I-SPACE FUNCTION ZN,Zone Air Temperature [C] !Hourly
1132,7,MFG - CORR. >= 2.4M-SCH-I-SPACE FUNCTION ZN,Zone Air Relative Humidity [%] !Daily [Value,Min,Hour,Minute,Max,Hour,Minute]
1171,1,MFG - DETAILED-SPACE FUNCTION ZN,Zone Air Temperature [C] !Hourly
1172,7,MFG - DETAILED-SPACE FUNCTION ZN,Zone Air Relative Humidity [%] !Daily [Value,Min,Hour,Minute,Max,Hour,Minute]
1211,1,MFG - EQUIPMENT-SPACE FUNCTION ZN,Zone Air Temperature [C] !Hourly
1212,7,MFG - EQUIPMENT-SPACE FUNCTION ZN,Zone Air Relative Humidity [%] !Daily [Value,Min,Hour,Minute,Max,Hour,Minute]
1251,1,MUSEUM - EXHIBITION-SPACE FUNCTION ZN,Zone Air Temperature [C] !Hourly
1252,7,MUSEUM - EXHIBITION-SPACE FUNCTION ZN,Zone Air Relative Humidity [%] !Daily [Value,Min,Hour,Minute,Max,Hour,Minute]
1291,1,MUSEUM - RESTORATION-SPACE FUNCTION ZN,Zone Air Temperature [C] !Hourly
1292,7,MUSEUM - RESTORATION-SPACE FUNCTION ZN,Zone Air Relative Humidity [%] !Daily [Value,Min,Hour,Minute,Max,Hour,Minute]
1331,1,OFFICE - ENCLOSED - OCCSENS-SPACE FUNCTION ZN,Zone Air Temperature [C] !Hourly
1332,7,OFFICE - ENCLOSED - OCCSENS-SPACE FUNCTION ZN,Zone Air Relative Humidity [%] !Daily [Value,Min,Hour,Minute,Max,Hour,Minute]
1371,1,OFFICE - ENCLOSED-SPACE FUNCTION ZN,Zone Air Temperature [C] !Hourly
1372,7,OFFICE - ENCLOSED-SPACE FUNCTION ZN,Zone Air Relative Humidity [%] !Daily [Value,Min,Hour,Minute,Max,Hour,Minute]
1411,1,OFFICE - OPEN PLAN-SPACE FUNCTION ZN,Zone Air Temperature [C] !Hourly
1412,7,OFFICE - OPEN PLAN-SPACE FUNCTION ZN,Zone Air Relative Humidity [%] !Daily [Value,Min,Hour,Minute,Max,Hour,Minute]
1451,1,PARKING GARAGE SPACE-SPACE FUNCTION ZN,Zone Air Temperature [C] !Hourly
1452,7,PARKING GARAGE SPACE-SPACE FUNCTION ZN,Zone Air Relative Humidity [%] !Daily [Value,Min,Hour,Minute,Max,Hour,Minute]
1491,1,PENITENTIARY - AUDIENCE-SPACE FUNCTION ZN,Zone Air Temperature [C] !Hourly
1492,7,PENITENTIARY - AUDIENCE-SPACE FUNCTION ZN,Zone Air Relative Humidity [%] !Daily [Value,Min,Hour,Minute,Max,Hour,Minute]
1531,1,PENITENTIARY - CLASSROOM-SPACE FUNCTION ZN,Zone Air Temperature [C] !Hourly
1532,7,PENITENTIARY - CLASSROOM-SPACE FUNCTION ZN,Zone Air Relative Humidity [%] !Daily [Value,Min,Hour,Minute,Max,Hour,Minute]
10,1,Electricity:Facility [J] !TimeStep
1682,1,DistrictCooling:Facility [J] !TimeStep
1645,1,DistrictHeating:Facility [J] !TimeStep
End of Data Dictionary
1,FORT MCMURRAY AP ANN CLG .4% CONDNS DB=>MWB,  56.65,-111.22,  -7.00, 369.10
2,1, 7,21, 0, 1, 0.00,10.00,SummerDesignDay
8,14.218136923962174
10,39090237.16843658
1645,0.0
1682,16702.175016250403
2,1, 7,21, 0, 1,10.00,20.00,SummerDesignDay
8,14.171982153293495
10,39090237.16843658
1645,772794.9596833241
1682,0.0
2,1, 7,21, 0, 1,20.00,30.00,SummerDesignDay
8,14.125744780286427
10,39090237.16843658
1645,1292512.6179372976
1682,0.0
2,1, 7,21, 0, 1,30.00,40.00,SummerDesignDay
8,14.079436086331978
10,39090237.16843658
1645,1714081.7988389943
1682,0.0
2,1, 7,21, 0, 1,40.00,50.00,SummerDesignDay
8,14.033050387896898
10,39090237.16843658
1645,2267528.12637078
1682,0.0
2,1, 7,21, 0, 1,50.00,60.00,SummerDesignDay
8,13.986581233564835
10,39090237.16843658
1645,2781509.823091339
1682,0.0
2,1, 7,21, 0, 1, 0.00,60.00,SummerDesignDay
771,22.43078439248455
811,22.210054307159369
851,23.55782879942861
891,23.55866800910755
931,21.94069790206595
971,23.27289279848583
1011,23.223894054143675
1051,23.90382890204712
1091,23.32677643854593
1131,22.202400103986635
1171,22.770250078403234
1211,22.520821434763936
1251,22.16380448973373
1291,23.751961996184716
1331,25.091008061545315
1371,24.26857581570948
1411,23.951291434202003
1451,22.00703157765132
1491,22.355504347382948
1531,22.171685642319983
2,1, 7,21, 0, 2, 0.00,10.00,SummerDesignDay
8,13.95555882260429
10,28530325.057245174
1645,0.0
1682,0.0
2,1, 7,21, 0, 2,10.00,20.00,SummerDesignDay
8,13.924507755336454
10,28530325.057245174
1645,0.0
1682,0.0
2,1, 7,21, 0, 2,20.00,30.00,SummerDesignDay
8,13.893416042989206
10,28530325.057245174
1645,0.0
1682,0.0
2,1, 7,21, 0, 2,30.00,40.00,SummerDesignDay
8,13.862289589689029
10,28530325.057245174
1645,0.0
1682,0.0
2,1, 7,21, 0, 2,40.00,50.00,SummerDesignDay
8,13.831134407608739
10,28530325.057245174
1645,0.0
1682,0.0
2,1, 7,21, 0, 2,50.00,60.00,SummerDesignDay
8,13.799938415548118
10,28530325.057245174
1645,0.0
1682,0.0
2,1, 7,21, 0, 2, 0.00,60.00,SummerDesignDay
771,21.641468679375607
811,21.73767736396456
851,23.152908758400235
891,23.212197112205037
931,21.456652973723139
971,22.928993038416129
1011,22.859359643993874
1051,23.520364577683723
1091,23.08232870027734
1131,21.45989350726452
1171,22.46778833872361
1211,22.04887344707039
1251,21.81613593351536
1291,23.537588116148787
1331,24.894232971238723
1371,24.088828959422814
1411,23.764882211571046
1451,21.597144442912947
1491,22.001192228052984
1531,21.776660078385125
2,1, 7,21, 0, 3, 0.00,10.00,SummerDesignDay
8,13.776521671948676
10,25890347.02853911
1645,0.0
1682,0.0
2,1, 7,21, 0, 3,10.00,20.00,SummerDesignDay
8,13.753085235778466
10,25890347.02853911
1645,0.0
1682,0.0
2,1, 7,21, 0, 3,20.00,30.00,SummerDesignDay
8,13.729636002354969
10,25890347.02853911
1645,0.0
1682,0.0
2,1, 7,21, 0, 3,30.00,40.00,SummerDesignDay
8,13.706147375533054
10,25890347.02853911
1645,0.0
1682,0.0
2,1, 7,21, 0, 3,40.00,50.00,SummerDesignDay
8,13.682651961920304
10,25890347.02853911
1645,0.0
1682,0.0
2,1, 7,21, 0, 3,50.00,60.00,SummerDesignDay
8,13.659136670643687
10,25890347.02853911
1645,0.0
1682,0.0
2,1, 7,21, 0, 3, 0.00,60.00,SummerDesignDay
771,21.142571033192146
811,21.343850820665315
851,22.748281475653305
891,22.908560376602386
931,21.060854461923758
971,22.629999892344889
1011,22.57171097313902
1051,23.207626926384337
1091,22.89201113397762
1131,20.959998761664779
1171,22.219518539143438
1211,21.66316219637604
1251,21.537621199339005
1291,23.36127019947635
1331,24.722093361410264
1371,23.94195147604336
1411,23.60995633216292
1451,21.286128922070856
1491,21.71398726870048
1531,21.4649576012074
2,1, 7,21, 0, 4, 0.00,10.00,SummerDesignDay
8,13.63560137410855
10,25395351.148156726
1645,0.0
1682,0.0
2,1, 7,21, 0, 4,10.00,20.00,SummerDesignDay
8,13.612040802606578
10,25395351.148156726
1645,0.0
1682,0.0
2,1, 7,21, 0, 4,20.00,30.00,SummerDesignDay
8,13.58846620506876
10,25395351.148156726
1645,0.0
1682,0.0
2,1, 7,21, 0, 4,30.00,40.00,SummerDesignDay
8,13.56487178447336
10,25395351.148156726
1645,0.0
1682,0.0
2,1, 7,21, 0, 4,40.00,50.00,SummerDesignDay
8,13.541257354069103
10,25395351.148156726
1645,0.0
1682,0.0
2,1, 7,21, 0, 4,50.00,60.00,SummerDesignDay
8,13.517617463812285
10,25395351.148156726
1645,0.0
1682,0.0
2,1, 7,21, 0, 4, 0.00,60.00,SummerDesignDay
771,20.804200655991488
811,21.002005153413703
851,22.46098785418768
891,22.62243421259772
931,20.720295407282547
971,22.34857144016138
1011,22.281071554276968
1051,22.934912069531394
1091,22.722847563088469
1131,20.607392136467089
1171,21.993328036564138
1211,21.328293295436447
1251,21.287090103383549
1291,23.196175309969275
1331,24.557350770722548
1371,23.809116450972579
1411,23.466494113330623
1451,21.049586107280264
1491,21.45153637320207
1531,21.182963665604004
2,1, 7,21, 0, 5, 0.00,10.00,SummerDesignDay
8,13.50185415824011
10,25395351.148156726
1645,0.0
1682,0.0
2,1, 7,21, 0, 5,10.00,20.00,SummerDesignDay
8,13.486076034032447
10,25395351.148156726
1645,0.0
1682,0.0
2,1, 7,21, 0, 5,20.00,30.00,SummerDesignDay
8,13.470289340350983
10,25395351.148156726
1645,0.0
1682,0.0
2,1, 7,21, 0, 5,30.00,40.00,SummerDesignDay
8,13.454493322631063
10,25395351.148156726
1645,0.0
1682,0.0
2,1, 7,21, 0, 5,40.00,50.00,SummerDesignDay
8,13.438688835118548
10,25395351.148156726
1645,0.0
1682,0.0
2,1, 7,21, 0, 5,50.00,60.00,SummerDesignDay
8,13.422888173889437
10,25395351.148156726
1645,0.0
1682,0.0
2,1, 7,21, 0, 5, 0.00,60.00,SummerDesignDay
771,20.559470666700127
811,20.758304438680037
851,22.221097331263299
891,22.35716773488983
931,20.67844579780741
971,22.186099508242667
1011,22.081972731450695
1051,22.68511019645906
1091,22.565947419187358
1131,20.48285035883369
1171,21.780782893559885
1211,21.0890014158054
1251,21.055944516258874
1291,23.037607818614025
1331,24.402682760908918
1371,23.68267929587383
1411,23.328580129620265
1451,20.888871638383418
1491,21.304381324216405
1531,20.92944985252839
2,1, 7,21, 0, 6, 0.00,10.00,SummerDesignDay
8,13.438688835118548
10,25395351.148156726
1645,0.0
1682,0.0
2,1, 7,21, 0, 6,10.00,20.00,SummerDesignDay
8,13.454493322631063
10,25395351.148156726
1645,0.0
1682,0.0
2,1, 7,21, 0, 6,20.00,30.00,SummerDesignDay
8,13.470289340350983
10,25395351.148156726
1645,0.0
1682,0.0
2,1, 7,21, 0, 6,30.00,40.00,SummerDesignDay
8,13.486076034032447
10,25395351.148156726
1645,0.0
1682,0.0
2,1, 7,21, 0, 6,40.00,50.00,SummerDesignDay
8,13.50185415824011
10,25395351.148156726
1645,0.0
1682,0.0
2,1, 7,21, 0, 6,50.00,60.00,SummerDesignDay
8,13.517617463812285
10,25395351.148156726
1645,0.0
1682,0.0
2,1, 7,21, 0, 6, 0.00,60.00,SummerDesignDay
771,20.60188295032115
811,20.823201727159448
851,22.06721329773974
891,22.190612324850293
931,21.635676233379724
971,22.45997936540162
1011,22.028950544485537
1051,22.53262066147948
1091,22.48340281371979
1131,20.78290502158099
1171,21.64428901604519
1211,21.163373664037878
1251,20.93355087742656
1291,22.938631882557176
1331,24.30158537347964
1371,23.59017710205302
1411,23.22974423698491
1451,20.88040484200977
1491,21.558775564693279
1531,20.813528715323618
2,1, 7,21, 0, 7, 0.00,10.00,SummerDesignDay
8,13.572736920571789
10,26880338.789303885
1645,0.0
1682,7137516.321018387
2,1, 7,21, 0, 7,10.00,20.00,SummerDesignDay
8,13.627748229152554
10,26880338.789303885
1645,0.0
1682,0.0
2,1, 7,21, 0, 7,20.00,30.00,SummerDesignDay
8,13.682651961920304
10,26880338.789303885
1645,0.0
1682,889630.316416958
2,1, 7,21, 0, 7,30.00,40.00,SummerDesignDay
8,13.737448093244995
10,26880338.789303885
1645,0.0
1682,2777303.299209237
2,1, 7,21, 0, 7,40.00,50.00,SummerDesignDay
8,13.792137011831216
10,26880338.789303885
1645,0.0
1682,1697808.4792429989
2,1, 7,21, 0, 7,50.00,60.00,SummerDesignDay
8,13.846719282840333
10,26880338.789303885
1645,0.0
1682,1921804.2337049868
2,1, 7,21, 0, 7, 0.00,60.00,SummerDesignDay
771,21.030305561508386
811,21.26433978818314
851,22.083056601158558
891,22.200331649587779
931,22.970380806206348
971,22.939029082783987
1011,22.042007241435404
1051,22.60207253284072
1091,22.559725463124594
1131,21.134376836719036
1171,21.670460644275669
1211,21.62856032922672
1251,21.03773393396858
1291,22.960871188632809
1331,23.99264278024273
1371,23.57669730539647
1411,23.21616059304934
1451,20.990333620753075
1491,22.01280587583136
1531,20.94488098837905
2,1, 7,21, 0, 8, 0.00,10.00,SummerDesignDay
8,13.978831900527043
10,57623520.429606
1645,9737479.081706632
1682,4796005.16363984
2,1, 7,21, 0, 8,10.00,20.00,SummerDesignDay
8,14.110321014287419
10,57623520.429606
1645,0.0
1682,9803131.7384591
2,1, 7,21, 0, 8,20.00,30.00,SummerDesignDay
8,14.241191509616986
10,57623520.429606
1645,0.0
1682,15670288.493120825
2,1, 7,21, 0, 8,30.00,40.00,SummerDesignDay
8,14.371447531304272
10,57623520.429606
1645,0.0
1682,19236799.244539687
2,1, 7,21, 0, 8,40.00,50.00,SummerDesignDay
8,14.501093766564925
10,57623520.429606
1645,0.0
1682,22645066.553437216
2,1, 7,21, 0, 8,50.00,60.00,SummerDesignDay
8,14.630134792273804
10,57623520.429606
1645,0.0
1682,27998258.07546598
2,1, 7,21, 0, 8, 0.00,60.00,SummerDesignDay
771,22.077899952768378
811,22.630399235579814
851,22.377809617346697
891,22.499511082384655
931,23.95396803724803
971,23.591653033597227
1011,22.38414156974341
1051,22.98438577999994
1091,22.902796879930439
1131,22.11280079615875
1171,22.34657891939465
1211,23.15633886477904
1251,21.501859097290465
1291,23.457855002892147
1331,23.99999999993146
1371,23.937391455746608
1411,23.719746238135305
1451,21.51142331395944
1491,22.70060567818612
1531,21.489546521831728
2,1, 7,21, 0, 9, 0.00,10.00,SummerDesignDay
8,14.773641492809972
10,149951502.02364213
1645,1615379.1332723683
1682,84282585.97210498
2,1, 7,21, 0, 9,10.00,20.00,SummerDesignDay
8,14.91640948124148
10,149951502.02364213
1645,0.0
1682,100800632.38758452
2,1, 7,21, 0, 9,20.00,30.00,SummerDesignDay
8,15.05843890714102
10,149951502.02364213
1645,0.0
1682,115506380.81364684
2,1, 7,21, 0, 9,30.00,40.00,SummerDesignDay
8,15.199735893563798
10,149951502.02364213
1645,0.0
1682,128957219.65811019
2,1, 7,21, 0, 9,40.00,50.00,SummerDesignDay
8,15.340306256439395
10,149951502.02364213
1645,0.0
1682,143075899.67345686
2,1, 7,21, 0, 9,50.00,60.00,SummerDesignDay
8,15.48015101768072
10,149951502.02364213
1645,0.0
1682,154311357.9464768
2,1, 7,21, 0, 9, 0.00,60.00,SummerDesignDay
771,23.79052995259705
811,23.895199628313266
851,22.993476752058446
891,23.2769025261188
931,23.999999999997315
971,23.999082529736954
1011,23.042725819245665
1051,23.61895256745112
1091,23.558879672825076
1131,23.819419721736254
1171,23.62407212519068
1211,23.999932567499476
1251,22.962175958883525
1291,23.991510168514809
1331,24.00000000000001
1371,23.999999999999849
1411,23.999995886263137
1451,22.498605415385368
1491,23.813809737791848
1531,22.829551567331725
2,1, 7,21, 0,10, 0.00,10.00,SummerDesignDay
8,15.60467292907716
10,192676021.44316278
1645,0.0
1682,200632906.72019137
2,1, 7,21, 0,10,10.00,20.00,SummerDesignDay
8,15.72862731650033
10,192676021.44316278
1645,0.0
1682,227141465.1463174
2,1, 7,21, 0,10,20.00,30.00,SummerDesignDay
8,15.852017409284228
10,192676021.44316278
1645,0.0
1682,245139212.69069178
2,1, 7,21, 0,10,30.00,40.00,SummerDesignDay
8,15.974848118364367
10,192676021.44316278
1645,0.0
1682,264041631.514937
2,1, 7,21, 0,10,40.00,50.00,SummerDesignDay
8,16.097123145563505
10,192676021.44316278
1645,0.0
1682,285690890.1925379
2,1, 7,21, 0,10,50.00,60.00,SummerDesignDay
8,16.218846351168599
10,192676021.44316278
1645,0.0
1682,305821107.51646098
2,1, 7,21, 0,10, 0.00,60.00,SummerDesignDay
771,25.700148413962876
811,23.999999999881579
851,23.839524858260586
891,23.97949853966038
931,24.000000000000044
971,23.9999999999998
1011,23.814280407489908
1051,23.999800892069119
1091,23.99958501387582
1131,25.759271826214389
1171,23.999999717694906
1211,23.999999999999898
1251,23.986543875927685
1291,23.999999999999777
1331,24.00000000000001
1371,23.999999999999976
1411,24.000000000000005
1451,23.59202921181566
1491,23.99999996335488
1531,23.990910850110994
2,1, 7,21, 0,11, 0.00,10.00,SummerDesignDay
8,16.325793027093189
10,194986002.21828056
1645,0.0
1682,334812428.39746508
2,1, 7,21, 0,11,10.00,20.00,SummerDesignDay
8,16.432322158488288
10,194986002.21828056
1645,0.0
1682,352279288.86703547
2,1, 7,21, 0,11,20.00,30.00,SummerDesignDay
8,16.538424180249178
10,194986002.21828056
1645,0.0
1682,368664919.75679609
2,1, 7,21, 0,11,30.00,40.00,SummerDesignDay
8,16.644108396469087
10,194986002.21828056
1645,0.0
1682,384519208.77525588
2,1, 7,21, 0,11,40.00,50.00,SummerDesignDay
8,16.749376736593655
10,194986002.21828056
1645,0.0
1682,399713102.1891313
2,1, 7,21, 0,11,50.00,60.00,SummerDesignDay
8,16.854232613237156
10,194986002.21828056
1645,0.0
1682,414838060.96883377
2,1, 7,21, 0,11, 0.00,60.00,SummerDesignDay
771,27.341683452815546
811,24.000000000000058
851,23.99999987932448
891,23.999999999981154
931,24.000000000000033
971,24.000000000000015
1011,23.999995262822467
1051,23.99999999999981
1091,23.99999999999957
1131,27.461392397431088
1171,23.999999999999998
1211,24.0000000000001
1251,23.999999999831489
1291,24.00000000000001
1331,24.000000000000019
1371,24.000000000000019
1411,24.000000000000019
1451,23.999438342334647
1491,24.0
1531,23.999999998598026
2,1, 7,21, 0,12, 0.00,10.00,SummerDesignDay
8,16.92390823520069
10,195810995.3522512
1645,0.0
1682,426615784.4444109
2,1, 7,21, 0,12,10.00,20.00,SummerDesignDay
8,16.99340178950456
10,195810995.3522512
1645,0.0
1682,437710514.65017327
2,1, 7,21, 0,12,20.00,30.00,SummerDesignDay
8,17.06272006743463
10,195810995.3522512
1645,0.0
1682,448845166.0123432
2,1, 7,21, 0,12,30.00,40.00,SummerDesignDay
8,17.131853229172639
10,195810995.3522512
1645,0.0
1682,460023038.7272097
2,1, 7,21, 0,12,40.00,50.00,SummerDesignDay
8,17.200807172194087
10,195810995.3522512
1645,0.0
1682,471180671.1509166
2,1, 7,21, 0,12,50.00,60.00,SummerDesignDay
8,17.269582116758607
10,195810995.3522512
1645,0.0
1682,482081091.79845878
2,1, 7,21, 0,12, 0.00,60.00,SummerDesignDay
771,28.656270999127718
811,24.000000000000019
851,23.999999999999955
891,24.00000000000001
931,24.000000000000033
971,24.00000000000001
1011,23.999999999997983
1051,24.000000000000005
1091,24.0
1131,28.829068566302018
1171,24.000000000000015
1211,24.000000000000033
1251,24.000000000000033
1291,24.00000000000001
1331,24.000000000000055
1371,24.00000000000003
1411,24.00000000000001
1451,23.999999989921265
1491,24.00000000000001
1531,24.00000000000001
2,1, 7,21, 0,13, 0.00,10.00,SummerDesignDay
8,17.32447360221357
10,195315999.4718688
1645,0.0
1682,486650659.9444629
2,1, 7,21, 0,13,10.00,20.00,SummerDesignDay
8,17.379251291230806
10,195315999.4718688
1645,0.0
1682,494944196.304016
2,1, 7,21, 0,13,20.00,30.00,SummerDesignDay
8,17.433921312061729
10,195315999.4718688
1645,0.0
1682,502930310.4479186
2,1, 7,21, 0,13,30.00,40.00,SummerDesignDay
8,17.488473222557489
10,195315999.4718688
1645,0.0
1682,510858276.63133779
2,1, 7,21, 0,13,40.00,50.00,SummerDesignDay
8,17.542913447755134
10,195315999.4718688
1645,0.0
1682,518649564.3950858
2,1, 7,21, 0,13,50.00,60.00,SummerDesignDay
8,17.59724609886134
10,195315999.4718688
1645,0.0
1682,526312516.54812589
2,1, 7,21, 0,13, 0.00,60.00,SummerDesignDay
771,29.59495564197827
811,24.000000000000047
851,23.999999999999998
891,24.000000000000015
931,24.000000000000026
971,24.000000000000033
1011,24.00000000000001
1051,24.0
1091,24.000000000000005
1131,29.80920362944322
1171,24.000000000000019
1211,24.0
1251,24.00000000000001
1291,24.000000000000026
1331,24.00000000000003
1371,24.00000000000001
1411,24.00000000000001
1451,23.999999999999834
1491,23.99999999999999
1531,24.0
2,1, 7,21, 0,14, 0.00,10.00,SummerDesignDay
8,17.6311450462694
10,195315999.4718688
1645,0.0
1682,531525834.4925093
2,1, 7,21, 0,14,10.00,20.00,SummerDesignDay
8,17.665000449016245
10,195315999.4718688
1645,0.0
1682,536767595.60530337
2,1, 7,21, 0,14,20.00,30.00,SummerDesignDay
8,17.698812743128934
10,195315999.4718688
1645,0.0
1682,542044003.9643052
2,1, 7,21, 0,14,30.00,40.00,SummerDesignDay
8,17.732582050940107
10,195315999.4718688
1645,0.0
1682,547375672.3254135
2,1, 7,21, 0,14,40.00,50.00,SummerDesignDay
8,17.766307345121004
10,195315999.4718688
1645,0.0
1682,552784146.2498176
2,1, 7,21, 0,14,50.00,60.00,SummerDesignDay
8,17.79999023167558
10,195315999.4718688
1645,0.0
1682,558262387.498326
2,1, 7,21, 0,14, 0.00,60.00,SummerDesignDay
771,30.205480177717289
811,23.999999999999998
851,24.000000000000026
891,24.000000000000019
931,24.000000000000019
971,24.00000000000001
1011,23.999999999999998
1051,24.000000000000005
1091,24.000000000000005
1131,30.44957092960909
1171,24.00000000000001
1211,23.99999999999997
1251,23.99999999999999
1291,24.000000000000026
1331,23.99999999999999
1371,24.000000000000019
1411,24.000000000000005
1451,24.0
1491,24.000000000000015
1531,24.00000000000001
2,1, 7,21, 0,15, 0.00,10.00,SummerDesignDay
8,17.79999023167558
10,195315999.4718688
1645,0.0
1682,863948886.1026178
2,1, 7,21, 0,15,10.00,20.00,SummerDesignDay
8,17.79999023167558
10,195315999.4718688
1645,0.0
1682,682000662.7187123
2,1, 7,21, 0,15,20.00,30.00,SummerDesignDay
8,17.79999023167558
10,195315999.4718688
1645,0.0
1682,716179235.6423097
2,1, 7,21, 0,15,30.00,40.00,SummerDesignDay
8,17.79999023167558
10,195315999.4718688
1645,0.0
1682,657780476.5009108
2,1, 7,21, 0,15,40.00,50.00,SummerDesignDay
8,17.79999023167558
10,195315999.4718688
1645,0.0
1682,658205289.8585777
2,1, 7,21, 0,15,50.00,60.00,SummerDesignDay
8,17.79999023167558
10,195315999.4718688
1645,0.0
1682,657210806.2207747
2,1, 7,21, 0,15, 0.00,60.00,SummerDesignDay
771,23.943957447202878
811,24.000000000000058
851,24.0
891,24.000000000000019
931,24.000000000000047
971,24.000000000000005
1011,24.0
1051,24.0
1091,24.0
1131,23.952818350399697
1171,24.0
1211,24.00000000000003
1251,24.000000000000015
1291,24.00000000000001
1331,24.0
1371,24.000000000000019
1411,24.000000000000015
1451,24.000000000000005
1491,24.000000000000015
1531,23.99999999999999
2,1, 7,21, 0,16, 0.00,10.00,SummerDesignDay
8,17.759562446305357
10,201255950.0328246
1645,0.0
1682,654799431.5429181
2,1, 7,21, 0,16,10.00,20.00,SummerDesignDay
8,17.71907809634183
10,201255950.0328246
1645,0.0
1682,649278030.7962396
2,1, 7,21, 0,16,20.00,30.00,SummerDesignDay
8,17.67853788661001
10,201255950.0328246
1645,0.0
1682,643071023.9198095
2,1, 7,21, 0,16,30.00,40.00,SummerDesignDay
8,17.63791796367351
10,201255950.0328246
1645,0.0
1682,636631898.7277844
2,1, 7,21, 0,16,40.00,50.00,SummerDesignDay
8,17.59724609886134
10,201255950.0328246
1645,0.0
1682,629960757.7807924
2,1, 7,21, 0,16,50.00,60.00,SummerDesignDay
8,17.55650676726033
10,201255950.0328246
1645,0.0
1682,623066359.7912232
2,1, 7,21, 0,16, 0.00,60.00,SummerDesignDay
771,23.999999999996349
811,24.000000000000026
851,24.000000000000019
891,24.000000000000019
931,23.999999999999987
971,24.00000000000001
1011,24.00000000000001
1051,24.000000000000033
1091,23.999999999999998
1131,23.999999999995244
1171,24.00000000000003
1211,24.00000000000001
1251,24.0
1291,23.999999999999984
1331,24.000000000000044
1371,24.000000000000019
1411,24.000000000000047
1451,24.0
1491,24.000000000000015
1531,24.000000000000015
2,1, 7,21, 0,17, 0.00,10.00,SummerDesignDay
8,17.50209486331892
10,195900994.60025753
1645,0.0
1682,611736029.0170419
2,1, 7,21, 0,17,10.00,20.00,SummerDesignDay
8,17.447570789624618
10,195900994.60025753
1645,0.0
1682,602521140.4630089
2,1, 7,21, 0,17,20.00,30.00,SummerDesignDay
8,17.392929544208135
10,195900994.60025753
1645,0.0
1682,593330897.0031349
2,1, 7,21, 0,17,30.00,40.00,SummerDesignDay
8,17.33818013976614
10,195900994.60025753
1645,0.0
1682,584023684.2836582
2,1, 7,21, 0,17,40.00,50.00,SummerDesignDay
8,17.283317298559309
10,195900994.60025753
1645,0.0
1682,574595708.545401
2,1, 7,21, 0,17,50.00,60.00,SummerDesignDay
8,17.22833552437677
10,195900994.60025753
1645,0.0
1682,565023729.1595222
2,1, 7,21, 0,17, 0.00,60.00,SummerDesignDay
771,24.000000000000015
811,23.99999999999996
851,23.99999999999999
891,24.00000000000001
931,24.000000000000026
971,24.000000000000015
1011,23.99999999999999
1051,24.000000000000047
1091,24.0
1131,23.999999999999969
1171,24.000000000000005
1211,24.000000000000019
1251,24.000000000000026
1291,24.00000000000004
1331,24.000000000000058
1371,24.000000000000033
1411,24.00000000000004
1451,24.000000000000005
1491,24.000000000000026
1531,23.999999999999969
2,1, 7,21, 0,18, 0.00,10.00,SummerDesignDay
8,17.159453019160176
10,181113742.6673552
1645,0.0
1682,537888886.0783106
2,1, 7,21, 0,18,10.00,20.00,SummerDesignDay
8,17.090391773337136
10,181113742.6673552
1645,0.0
1682,525163620.11688128
2,1, 7,21, 0,18,20.00,30.00,SummerDesignDay
8,17.021151077964786
10,181113742.6673552
1645,0.0
1682,512756158.01867887
2,1, 7,21, 0,18,30.00,40.00,SummerDesignDay
8,16.951729380464653
10,181113742.6673552
1645,0.0
1682,500426292.2482085
2,1, 7,21, 0,18,40.00,50.00,SummerDesignDay
8,16.882126503829249
10,181113742.6673552
1645,0.0
1682,487901893.4446254
2,1, 7,21, 0,18,50.00,60.00,SummerDesignDay
8,16.812341807494034
10,181113742.6673552
1645,0.0
1682,475271121.2945918
2,1, 7,21, 0,18, 0.00,60.00,SummerDesignDay
771,24.000000000000005
811,24.000000000000019
851,24.0
891,24.000000000000033
931,24.000000000000047
971,24.000000000000019
1011,24.000000000000005
1051,24.00000000000003
1091,24.00000000000001
1131,24.00000000000003
1171,24.000000000000015
1211,24.0
1251,24.000000000000047
1291,24.00000000000001
1331,24.000000000000019
1371,24.00000000000003
1411,24.000000000000033
1451,24.0
1491,23.99999999999999
1531,24.000000000000015
2,1, 7,21, 0,19, 0.00,10.00,SummerDesignDay
8,16.707321072823203
10,135551996.85486616
1645,0.0
1682,420254483.9780542
2,1, 7,21, 0,19,10.00,20.00,SummerDesignDay
8,16.601881826644556
10,135551996.85486616
1645,0.0
1682,400805544.4835093
2,1, 7,21, 0,19,20.00,30.00,SummerDesignDay
8,16.496030555252849
10,135551996.85486616
1645,0.0
1682,382768444.07375326
2,1, 7,21, 0,19,30.00,40.00,SummerDesignDay
8,16.389760181474104
10,135551996.85486616
1645,0.0
1682,364771371.306611
2,1, 7,21, 0,19,40.00,50.00,SummerDesignDay
8,16.283067654262039
10,135551996.85486616
1645,0.0
1682,346620308.8002259
2,1, 7,21, 0,19,50.00,60.00,SummerDesignDay
8,16.17595057957811
10,135551996.85486616
1645,0.0
1682,327296687.55316069
2,1, 7,21, 0,19, 0.00,60.00,SummerDesignDay
771,23.999999999999998
811,24.000000000000015
851,24.0
891,24.000000000000026
931,24.00000000000001
971,23.99999999999999
1011,23.99999999999999
1051,24.000000000000047
1091,24.0
1131,24.000000000000019
1171,23.999999999999987
1211,24.0
1251,24.00000000000001
1291,24.000000000000019
1331,23.999999999999976
1371,24.000000000000026
1411,24.000000000000005
1451,24.0
1491,24.00000000000001
1531,24.000000000000005
2,1, 7,21, 0,20, 0.00,10.00,SummerDesignDay
8,16.097123145563505
10,110151208.25405714
1645,0.0
1682,279670195.1037901
2,1, 7,21, 0,20,10.00,20.00,SummerDesignDay
8,16.018070242471564
10,110151208.25405714
1645,0.0
1682,264190857.99300165
2,1, 7,21, 0,20,20.00,30.00,SummerDesignDay
8,15.938779752340516
10,110151208.25405714
1645,0.0
1682,249405042.50405405
2,1, 7,21, 0,20,30.00,40.00,SummerDesignDay
8,15.85926152575189
10,110151208.25405714
1645,0.0
1682,234206851.66004727
2,1, 7,21, 0,20,40.00,50.00,SummerDesignDay
8,15.779503718563929
10,110151208.25405714
1645,0.0
1682,218689526.72790513
2,1, 7,21, 0,20,50.00,60.00,SummerDesignDay
8,15.699515709672767
10,110151208.25405714
1645,0.0
1682,202481222.40818659
2,1, 7,21, 0,20, 0.00,60.00,SummerDesignDay
771,24.0
811,24.000000000000019
851,24.00000000000001
891,24.000000000000015
931,24.000000000000015
971,24.98788772059528
1011,24.000000000000005
1051,24.000000000000026
1091,24.00000000000001
1131,24.00000000000001
1171,24.0
1211,24.0
1251,24.0
1291,24.00000000000001
1331,23.999999999999998
1371,24.00000000000001
1411,24.00000000000001
1451,24.000000000000005
1491,24.000000000000015
1531,24.000000000000005
2,1, 7,21, 0,21, 0.00,10.00,SummerDesignDay
8,15.63389147320404
10,108294973.70322867
1645,0.0
1682,186972192.65666119
2,1, 7,21, 0,21,10.00,20.00,SummerDesignDay
8,15.56810827419793
10,108294973.70322867
1645,0.0
1682,172322443.34982873
2,1, 7,21, 0,21,20.00,30.00,SummerDesignDay
8,15.502170882753524
10,108294973.70322867
1645,0.0
1682,157635844.46686528
2,1, 7,21, 0,21,30.00,40.00,SummerDesignDay
8,15.436068032613852
10,108294973.70322867
1645,0.0
1682,143050570.61535768
2,1, 7,21, 0,21,40.00,50.00,SummerDesignDay
8,15.369804371206009
10,108294973.70322867
1645,0.0
1682,128944974.46093501
2,1, 7,21, 0,21,50.00,60.00,SummerDesignDay
8,15.303384603594449
10,108294973.70322867
1645,0.0
1682,114229734.1651048
2,1, 7,21, 0,21, 0.00,60.00,SummerDesignDay
771,24.0
811,24.000000000000015
851,23.99999999999999
891,24.000000000000019
931,24.000000000000019
971,24.852134054835124
1011,23.999999999999998
1051,24.00000000000001
1091,23.999999999999998
1131,24.00000000000001
1171,24.000000000000005
1211,24.000000000000005
1251,24.000000000000015
1291,24.000000000000005
1331,24.000000000000033
1371,24.0
1411,24.000000000000015