Program Version,EnergyPlus, Version 8.9.0-eba93e8e1b, YMD=2019.04.04 17:58
1,5,Environment Title[],Latitude[deg],Longitude[deg],Time Zone[],Elevation[m]
2,8,Day of Simulation[],Month[],Day of Month[],DST Indicator[1=yes 0=no],Hour[],StartMinute[],EndMinute[],DayType
3,5,Cumulative Day of Simulation[],Month[],Day of Month[],DST Indicator[1=yes 0=no],DayType  ! When Daily Report Variables Requested
4,2,Cumulative Days of Simulation[],Month[]  ! When Monthly Report Variables Requested
5,1,Cumulative Days of Simulation[] ! When Run Period Report Variables Requested
6,1,Calendar Year of Simulation[] ! When Annual Report Variables Requested
7,9,Environment,Site Outdoor Air Drybulb Temperature [C] !Monthly [Value,Min,Day,Hour,Minute,Max,Day,Hour,Minute]
8,1,Environment,Site Outdoor Air Wetbulb Temperature [C] !TimeStep
331,1,STORAGE AREA - REFRIGERATED - OCCSENS-SPACE FUNCTION ZN,Zone Air Temperature [C] !Hourly
332,7,STORAGE AREA - REFRIGERATED - OCCSENS-SPACE FUNCTION ZN,Zone Air Relative Humidity [%] !Daily [Value,Min,Hour,Minute,Max,Hour,Minute]
371,1,TRANSP. BAGGAGE-SPACE FUNCTION ZN,Zone Air Temperature [C] !Hourly
372,7,TRANSP. BAGGAGE-SPACE FUNCTION ZN,Zone Air Relative Humidity [%] !Daily [Value,Min,Hour,Minute,Max,Hour,Minute]
411,1,TRANSP. CONCOURSE-SPACE FUNCTION ZN,Zone Air Temperature [C] !Hourly
412,7,TRANSP. CONCOURSE-SPACE FUNCTION ZN,Zone Air Relative Humidity [%] !Daily [Value,Min,Hour,Minute,Max,Hour,Minute]
451,1,TRANSP. COUNTER-SPACE FUNCTION ZN,Zone Air Temperature [C] !Hourly
452,7,TRANSP. COUNTER-SPACE FUNCTION ZN,Zone Air Relative Humidity [%] !Daily [Value,Min,Hour,Minute,Max,Hour,Minute]
491,1,TRANSP. SEATING-SPACE FUNCTION ZN,Zone Air Temperature [C] !Hourly
492,7,TRANSP. SEATING-SPACE FUNCTION ZN,Zone Air Relative Humidity [%] !Daily [Value,Min,Hour,Minute,Max,Hour,Minute]
10,1,Electricity:Facility [J] !TimeStep
642,1,DistrictCooling:Facility [J] !TimeStep
605,1,DistrictHeating:Facility [J] !TimeStep
End of Data Dictionary
1,FORT MCMURRAY AP ANN CLG .4% CONDNS DB=>MWB,  56.65,-111.22,  -7.00, 369.10
2,1, 7,21, 0, 1, 0.00,10.00,SummerDesignDay
8,14.218136923962174
10,35464954.850508678
605,15948259.510833241
642,18075258.50547357
2,1, 7,21, 0, 1,10.00,20.00,SummerDesignDay
8,14.171982153293495
10,35464954.850508678
605,17337371.15889732
642,17622048.991395106
2,1, 7,21, 0, 1,20.00,30.00,SummerDesignDay
8,14.125744780286427
10,35464954.850508678
605,18720844.695009404
642,17173026.265618639
2,1, 7,21, 0, 1,30.00,40.00,SummerDesignDay
8,14.079436086331978
10,35464954.850508678
605,20100262.93644019
642,16727387.999527494
2,1, 7,21, 0, 1,40.00,50.00,SummerDesignDay
8,14.033050387896898
10,35464954.850508678
605,21476553.777019245
642,16284512.457049128
2,1, 7,21, 0, 1,50.00,60.00,SummerDesignDay
8,13.986581233564835
10,35464954.850508678
605,22849727.321235435
642,15844736.70329896
2,1, 7,21, 0, 1, 0.00,60.00,SummerDesignDay
331,22.252865890987576
371,24.000000000000019
411,22.00000000025317
451,24.000000000000044
491,22.000002399944678
2,1, 7,21, 0, 2, 0.00,10.00,SummerDesignDay
8,13.95555882260429
10,35464954.850508678
605,0.0
642,15543594.94541929
2,1, 7,21, 0, 2,10.00,20.00,SummerDesignDay
8,13.924507755336454
10,35464954.850508678
605,0.0
642,15218679.342887145
2,1, 7,21, 0, 2,20.00,30.00,SummerDesignDay
8,13.893416042989206
10,35464954.850508678
605,0.0
642,14825387.000488786
2,1, 7,21, 0, 2,30.00,40.00,SummerDesignDay
8,13.862289589689029
10,35464954.850508678
605,0.0
642,14395178.24920104
2,1, 7,21, 0, 2,40.00,50.00,SummerDesignDay
8,13.831134407608739
10,35464954.850508678
605,0.0
642,13969948.54877049
2,1, 7,21, 0, 2,50.00,60.00,SummerDesignDay
8,13.799938415548118
10,35464954.850508678
605,0.0
642,13551541.573747935
2,1, 7,21, 0, 2, 0.00,60.00,SummerDesignDay
331,22.037206264173677
371,24.000000000000019
411,20.48293697524448
451,24.000000000000015
491,21.016935709283375
2,1, 7,21, 0, 3, 0.00,10.00,SummerDesignDay
8,13.776521671948676
10,35464954.850508678
605,0.0
642,13210178.084488415
2,1, 7,21, 0, 3,10.00,20.00,SummerDesignDay
8,13.753085235778466
10,35464954.850508678
605,0.0
642,12874149.875302198
2,1, 7,21, 0, 3,20.00,30.00,SummerDesignDay
8,13.729636002354969
10,35464954.850508678
605,0.0
642,12546300.79702196
2,1, 7,21, 0, 3,30.00,40.00,SummerDesignDay
8,13.706147375533054
10,35464954.850508678
605,0.0
642,12227692.544218524
2,1, 7,21, 0, 3,40.00,50.00,SummerDesignDay
8,13.682651961920304
10,35464954.850508678
605,0.0
642,11922321.225416922
2,1, 7,21, 0, 3,50.00,60.00,SummerDesignDay
8,13.659136670643687
10,35464954.850508678
605,0.0
642,11626408.115885802
2,1, 7,21, 0, 3, 0.00,60.00,SummerDesignDay
331,21.780644244731027
371,24.000000000000019
411,19.60356517553826
451,23.99999999999999
491,20.366261340135919
2,1, 7,21, 0, 4, 0.00,10.00,SummerDesignDay
8,13.63560137410855
10,35464954.850508678
605,0.0
642,11336451.271711775
2,1, 7,21, 0, 4,10.00,20.00,SummerDesignDay
8,13.612040802606578
10,35464954.850508678
605,0.0
642,11052833.672514212
2,1, 7,21, 0, 4,20.00,30.00,SummerDesignDay
8,13.58846620506876
10,35464954.850508678
605,0.0
642,10774778.568341984
2,1, 7,21, 0, 4,30.00,40.00,SummerDesignDay
8,13.56487178447336
10,35464954.850508678
605,0.0
642,10501409.398583446
2,1, 7,21, 0, 4,40.00,50.00,SummerDesignDay
8,13.541257354069103
10,35464954.850508678
605,0.0
642,10231982.541386184
2,1, 7,21, 0, 4,50.00,60.00,SummerDesignDay
8,13.517617463812285
10,35464954.850508678
605,0.0
642,9965869.57951672
2,1, 7,21, 0, 4, 0.00,60.00,SummerDesignDay
331,21.553422928415217
371,23.999999999999987
411,19.256596029178707
451,24.000000000000019
491,20.05021574286399
2,1, 7,21, 0, 5, 0.00,10.00,SummerDesignDay
8,13.50185415824011
10,35464954.850508678
605,0.0
642,9771253.26241294
2,1, 7,21, 0, 5,10.00,20.00,SummerDesignDay
8,13.486076034032447
10,35464954.850508678
605,0.0
642,9579109.180620809
2,1, 7,21, 0, 5,20.00,30.00,SummerDesignDay
8,13.470289340350983
10,35464954.850508678
605,0.0
642,9391287.632156367
2,1, 7,21, 0, 5,30.00,40.00,SummerDesignDay
8,13.454493322631063
10,35464954.850508678
605,0.0
642,9205217.946532196
2,1, 7,21, 0, 5,40.00,50.00,SummerDesignDay
8,13.438688835118548
10,35464954.850508678
605,0.0
642,9021530.513276402
2,1, 7,21, 0, 5,50.00,60.00,SummerDesignDay
8,13.422888173889437
10,35464954.850508678
605,0.0
642,8840493.238766479
2,1, 7,21, 0, 5, 0.00,60.00,SummerDesignDay
331,21.372577567172177
371,24.0
411,18.987960026213157
451,24.00000000000003
491,19.794263590619253
2,1, 7,21, 0, 6, 0.00,10.00,SummerDesignDay
8,13.438688835118548
10,35464954.850508678
605,0.0
642,8936605.739728263
2,1, 7,21, 0, 6,10.00,20.00,SummerDesignDay
8,13.454493322631063
10,35464954.850508678
605,0.0
642,9037039.926247348
2,1, 7,21, 0, 6,20.00,30.00,SummerDesignDay
8,13.470289340350983
10,35464954.850508678
605,0.0
642,9140123.989870195
2,1, 7,21, 0, 6,30.00,40.00,SummerDesignDay
8,13.486076034032447
10,35464954.850508678
605,0.0
642,9250214.941050485
2,1, 7,21, 0, 6,40.00,50.00,SummerDesignDay
8,13.50185415824011
10,35464954.850508678
605,0.0
642,9365117.833706214
2,1, 7,21, 0, 6,50.00,60.00,SummerDesignDay
8,13.517617463812285
10,35464954.850508678
605,0.0
642,9484230.866902303
2,1, 7,21, 0, 6, 0.00,60.00,SummerDesignDay
331,21.25726686415359
371,24.000000000000019
411,18.92039469618031
451,24.00000000000001
491,19.732477964031469
2,1, 7,21, 0, 7, 0.00,10.00,SummerDesignDay
8,13.572736920571789
10,35464954.850508678
605,0.0
642,9953786.549353514
2,1, 7,21, 0, 7,10.00,20.00,SummerDesignDay
8,13.627748229152554
10,35464954.850508678
605,0.0
642,10429290.995090403
2,1, 7,21, 0, 7,20.00,30.00,SummerDesignDay
8,13.682651961920304
10,35464954.850508678
605,0.0
642,10912795.563472746
2,1, 7,21, 0, 7,30.00,40.00,SummerDesignDay
8,13.737448093244995
10,35464954.850508678
605,0.0
642,11406123.37061557
2,1, 7,21, 0, 7,40.00,50.00,SummerDesignDay
8,13.792137011831216
10,35464954.850508678
605,0.0
642,11909809.3734949
2,1, 7,21, 0, 7,50.00,60.00,SummerDesignDay
8,13.846719282840333
10,35464954.850508678
605,0.0
642,12423352.162643386
2,1, 7,21, 0, 7, 0.00,60.00,SummerDesignDay
331,21.260159100262169
371,23.99999999999999
411,19.250834263016384
451,24.00000000000004
491,20.058651727217684
2,1, 7,21, 0, 8, 0.00,10.00,SummerDesignDay
8,13.978831900527043
10,35464954.850508678
605,7474227.670991325
642,13632932.849763195
2,1, 7,21, 0, 8,10.00,20.00,SummerDesignDay
8,14.110321014287419
10,35464954.850508678
605,0.0
642,14860847.009588559
2,1, 7,21, 0, 8,20.00,30.00,SummerDesignDay
8,14.241191509616986
10,35464954.850508678
605,0.0
642,16113128.636251416
2,1, 7,21, 0, 8,30.00,40.00,SummerDesignDay
8,14.371447531304272
10,35464954.850508678
605,0.0
642,17381241.723231809
2,1, 7,21, 0, 8,40.00,50.00,SummerDesignDay
8,14.501093766564925
10,35464954.850508678
605,0.0
642,18625315.441082736
2,1, 7,21, 0, 8,50.00,60.00,SummerDesignDay
8,14.630134792273804
10,35464954.850508678
605,0.0
642,19717953.925160834
2,1, 7,21, 0, 8, 0.00,60.00,SummerDesignDay
331,21.44952834327113
371,24.00000000000003
411,20.447156912875927
451,24.00000000000001
491,21.004044067734865
2,1, 7,21, 0, 9, 0.00,10.00,SummerDesignDay
8,14.773641492809972
10,39202923.74259229
605,29210969.573257667
642,20947512.88932207
2,1, 7,21, 0, 9,10.00,20.00,SummerDesignDay
8,14.91640948124148
10,39202923.74259229
605,2835759.4074270117
642,22261309.409508654
2,1, 7,21, 0, 9,20.00,30.00,SummerDesignDay
8,15.05843890714102
10,39202923.74259229
605,2650735.230532606
642,23665792.595063837
2,1, 7,21, 0, 9,30.00,40.00,SummerDesignDay
8,15.199735893563798
10,39202923.74259229
605,0.0
642,25037236.790565663
2,1, 7,21, 0, 9,40.00,50.00,SummerDesignDay
8,15.340306256439395
10,39202923.74259229
605,0.0
642,26372285.447939565
2,1, 7,21, 0, 9,50.00,60.00,SummerDesignDay
8,15.48015101768072
10,39202923.74259229
605,0.0
642,27685456.081063298
2,1, 7,21, 0, 9, 0.00,60.00,SummerDesignDay
331,22.449860439084064
371,24.0
411,22.270338846585589
451,24.000000000000019
491,22.627768361718187
2,1, 7,21, 0,10, 0.00,10.00,SummerDesignDay
8,15.60467292907716
10,42406897.07866396
605,0.0
642,28701055.654561119
2,1, 7,21, 0,10,10.00,20.00,SummerDesignDay
8,15.72862731650033
10,42406897.07866396
605,0.0
642,30873009.80114087
2,1, 7,21, 0,10,20.00,30.00,SummerDesignDay
8,15.852017409284228
10,42406897.07866396
605,0.0
642,37010737.273806918
2,1, 7,21, 0,10,30.00,40.00,SummerDesignDay
8,15.974848118364367
10,42406897.07866396
605,0.0
642,45826835.24961431
2,1, 7,21, 0,10,40.00,50.00,SummerDesignDay
8,16.097123145563505
10,42406897.07866396
605,0.0
642,57030797.81648091
2,1, 7,21, 0,10,50.00,60.00,SummerDesignDay
8,16.218846351168599
10,42406897.07866396
605,0.0
642,62333770.696247909
2,1, 7,21, 0,10, 0.00,60.00,SummerDesignDay
331,23.76221918622588
371,24.00000000000001
411,23.618617258716215
451,24.000000000000033
491,23.933891023289026
2,1, 7,21, 0,11, 0.00,10.00,SummerDesignDay
8,16.325793027093189
10,44542879.30271174
605,0.0
642,70665675.18875282
2,1, 7,21, 0,11,10.00,20.00,SummerDesignDay
8,16.432322158488288
10,44542879.30271174
605,0.0
642,77234689.85499601
2,1, 7,21, 0,11,20.00,30.00,SummerDesignDay
8,16.538424180249178
10,44542879.30271174
605,0.0
642,83428208.3599727
2,1, 7,21, 0,11,30.00,40.00,SummerDesignDay
8,16.644108396469087
10,44542879.30271174
605,0.0
642,89529848.5795823
2,1, 7,21, 0,11,40.00,50.00,SummerDesignDay
8,16.749376736593655
10,44542879.30271174
605,0.0
642,95557403.72610966
2,1, 7,21, 0,11,50.00,60.00,SummerDesignDay
8,16.854232613237156
10,44542879.30271174
605,0.0
642,101513533.60394567
2,1, 7,21, 0,11, 0.00,60.00,SummerDesignDay
331,23.99999999446561
371,24.000000000000019
411,23.99959128323015
451,24.00000000000001
491,23.999999202157626
2,1, 7,21, 0,12, 0.00,10.00,SummerDesignDay
8,16.92390823520069
10,44542879.30271174
605,0.0
642,105516863.64810694
2,1, 7,21, 0,12,10.00,20.00,SummerDesignDay
8,16.99340178950456
10,44542879.30271174
605,0.0
642,109474123.98564753
2,1, 7,21, 0,12,20.00,30.00,SummerDesignDay
8,17.06272006743463
10,44542879.30271174
605,0.0
642,113409660.61276052
2,1, 7,21, 0,12,30.00,40.00,SummerDesignDay
8,17.131853229172639
10,44542879.30271174
605,0.0
642,117313278.17008353
2,1, 7,21, 0,12,40.00,50.00,SummerDesignDay
8,17.200807172194087
10,44542879.30271174
605,0.0
642,121205752.79593411
2,1, 7,21, 0,12,50.00,60.00,SummerDesignDay
8,17.269582116758607
10,44542879.30271174
605,0.0
642,125091391.03539488
2,1, 7,21, 0,12, 0.00,60.00,SummerDesignDay
331,24.00000000000001
371,24.000000000000015
411,23.999999925961267
451,23.99999999999996
491,23.999999999876878
2,1, 7,21, 0,13, 0.00,10.00,SummerDesignDay
8,17.32447360221357
10,44542879.30271174
605,0.0
642,128202568.84597531
2,1, 7,21, 0,13,10.00,20.00,SummerDesignDay
8,17.379251291230806
10,44542879.30271174
605,0.0
642,131305346.33154646
2,1, 7,21, 0,13,20.00,30.00,SummerDesignDay
8,17.433921312061729
10,44542879.30271174
605,0.0
642,134401039.584062
2,1, 7,21, 0,13,30.00,40.00,SummerDesignDay
8,17.488473222557489
10,44542879.30271174
605,0.0
642,137490838.8433325
2,1, 7,21, 0,13,40.00,50.00,SummerDesignDay
8,17.542913447755134
10,44542879.30271174
605,0.0
642,140575925.55629153
2,1, 7,21, 0,13,50.00,60.00,SummerDesignDay
8,17.59724609886134
10,44542879.30271174
605,0.0
642,143657757.86542423
2,1, 7,21, 0,13, 0.00,60.00,SummerDesignDay
331,24.000000000000015
371,23.999999999999998
411,23.99999999998691
451,24.000000000000019
491,24.00000000000001
2,1, 7,21, 0,14, 0.00,10.00,SummerDesignDay
8,17.6311450462694
10,44542879.30271174
605,0.0
642,145583760.27732218
2,1, 7,21, 0,14,10.00,20.00,SummerDesignDay
8,17.665000449016245
10,44542879.30271174
605,0.0
642,147311273.4134454
2,1, 7,21, 0,14,20.00,30.00,SummerDesignDay
8,17.698812743128934
10,44542879.30271174
605,0.0
642,148992906.98284758
2,1, 7,21, 0,14,30.00,40.00,SummerDesignDay
8,17.732582050940107
10,44542879.30271174
605,0.0
642,150673859.01651389
2,1, 7,21, 0,14,40.00,50.00,SummerDesignDay
8,17.766307345121004
10,44542879.30271174
605,0.0
642,152354114.52680106
2,1, 7,21, 0,14,50.00,60.00,SummerDesignDay
8,17.79999023167558
10,44542879.30271174
605,0.0
642,154033551.7109888
2,1, 7,21, 0,14, 0.00,60.00,SummerDesignDay
331,23.999999999999998
371,24.000000000000015
411,23.99999999999999
451,24.000000000000015
491,24.0
2,1, 7,21, 0,15, 0.00,10.00,SummerDesignDay
8,17.79999023167558
10,44542879.30271174
605,0.0
642,153700548.05498494
2,1, 7,21, 0,15,10.00,20.00,SummerDesignDay
8,17.79999023167558
10,44542879.30271174
605,0.0
642,153687709.93322296
2,1, 7,21, 0,15,20.00,30.00,SummerDesignDay
8,17.79999023167558
10,44542879.30271174
605,0.0
642,153685753.1022299
2,1, 7,21, 0,15,30.00,40.00,SummerDesignDay
8,17.79999023167558
10,44542879.30271174
605,0.0
642,153684323.5572321
2,1, 7,21, 0,15,40.00,50.00,SummerDesignDay
8,17.79999023167558
10,44542879.30271174
605,0.0
642,153683228.89758308
2,1, 7,21, 0,15,50.00,60.00,SummerDesignDay
8,17.79999023167558
10,44542879.30271174
605,0.0
642,153682557.1448295
2,1, 7,21, 0,15, 0.00,60.00,SummerDesignDay
331,24.000000000000015
371,24.000000000000026
411,24.00000000000001
451,24.000000000000019
491,24.00000000000001
2,1, 7,21, 0,16, 0.00,10.00,SummerDesignDay
8,17.759562446305357
10,44542879.30271174
605,0.0
642,152017337.33640427
2,1, 7,21, 0,16,10.00,20.00,SummerDesignDay
8,17.71907809634183
10,44542879.30271174
605,0.0
642,150030748.67547209
2,1, 7,21, 0,16,20.00,30.00,SummerDesignDay
8,17.67853788661001
10,44542879.30271174
605,0.0
642,148028844.40634365
2,1, 7,21, 0,16,30.00,40.00,SummerDesignDay
8,17.63791796367351
10,44542879.30271174
605,0.0
642,146026511.10026265
2,1, 7,21, 0,16,40.00,50.00,SummerDesignDay
8,17.59724609886134
10,44542879.30271174
605,0.0
642,143742705.8280314
2,1, 7,21, 0,16,50.00,60.00,SummerDesignDay
8,17.55650676726033
10,44542879.30271174
605,0.0
642,141450121.5399379
2,1, 7,21, 0,16, 0.00,60.00,SummerDesignDay
331,24.000000000000005
371,24.000000000000026
411,24.0
451,23.99999999999999
491,24.000000000000005
2,1, 7,21, 0,17, 0.00,10.00,SummerDesignDay
8,17.50209486331892
10,44542879.30271174
605,0.0
642,138309040.58170275
2,1, 7,21, 0,17,10.00,20.00,SummerDesignDay
8,17.447570789624618
10,44542879.30271174
605,0.0
642,135244910.35951744
2,1, 7,21, 0,17,20.00,30.00,SummerDesignDay
8,17.392929544208135
10,44542879.30271174
605,0.0
642,132181617.92743613
2,1, 7,21, 0,17,30.00,40.00,SummerDesignDay
8,17.33818013976614
10,44542879.30271174
605,0.0
642,129118738.78365806
2,1, 7,21, 0,17,40.00,50.00,SummerDesignDay
8,17.283317298559309
10,44542879.30271174
605,0.0
642,126056056.33432351
2,1, 7,21, 0,17,50.00,60.00,SummerDesignDay
8,17.22833552437677
10,44542879.30271174
605,0.0
642,122993393.37819462
2,1, 7,21, 0,17, 0.00,60.00,SummerDesignDay
331,24.00000000000001
371,24.00000000000003
411,24.0
451,23.99999999999999
491,24.0
2,1, 7,21, 0,18, 0.00,10.00,SummerDesignDay
8,17.159453019160176
10,44542879.30271174
605,0.0
642,119165278.3768903
2,1, 7,21, 0,18,10.00,20.00,SummerDesignDay
8,17.090391773337136
10,44542879.30271174
605,0.0
642,115337070.71547272
2,1, 7,21, 0,18,20.00,30.00,SummerDesignDay
8,17.021151077964786
10,44542879.30271174
605,0.0
642,111508774.05314182
2,1, 7,21, 0,18,30.00,40.00,SummerDesignDay
8,16.951729380464653
10,44542879.30271174
605,0.0
642,107680384.39202182
2,1, 7,21, 0,18,40.00,50.00,SummerDesignDay
8,16.882126503829249
10,44542879.30271174
605,0.0
642,103851943.32789845
2,1, 7,21, 0,18,50.00,60.00,SummerDesignDay
8,16.812341807494034
10,44542879.30271174
605,0.0
642,100023468.98333237
2,1, 7,21, 0,18, 0.00,60.00,SummerDesignDay
331,24.00000000000001
371,24.000000000000015
411,24.0
451,24.00000000000001
491,24.00000000000001
2,1, 7,21, 0,19, 0.00,10.00,SummerDesignDay
8,16.707321072823203
10,39202923.74259229
605,0.0
642,90361983.80829995
2,1, 7,21, 0,19,10.00,20.00,SummerDesignDay
8,16.601881826644556
10,39202923.74259229
605,0.0
642,84090071.64792995
2,1, 7,21, 0,19,20.00,30.00,SummerDesignDay
8,16.496030555252849
10,39202923.74259229
605,0.0
642,78080591.42499656
2,1, 7,21, 0,19,30.00,40.00,SummerDesignDay
8,16.389760181474104
10,39202923.74259229
605,0.0
642,72079473.73593892
2,1, 7,21, 0,19,40.00,50.00,SummerDesignDay
8,16.283067654262039
10,39202923.74259229
605,0.0
642,66125890.544389609
2,1, 7,21, 0,19,50.00,60.00,SummerDesignDay
8,16.17595057957811
10,39202923.74259229
605,0.0
642,60205866.824475768
2,1, 7,21, 0,19, 0.00,60.00,SummerDesignDay
331,24.00000000000001
371,24.000000000000015
411,24.000000000000005
451,24.00000000000001
491,23.999999999999984
2,1, 7,21, 0,20, 0.00,10.00,SummerDesignDay
8,16.097123145563505
10,35464954.850508678
605,0.0
642,52470818.81551032
2,1, 7,21, 0,20,10.00,20.00,SummerDesignDay
8,16.018070242471564
10,35464954.850508678
605,0.0
642,48297412.029336068
2,1, 7,21, 0,20,20.00,30.00,SummerDesignDay
8,15.938779752340516
10,35464954.850508678
605,0.0
642,44125389.295544069
2,1, 7,21, 0,20,30.00,40.00,SummerDesignDay
8,15.85926152575189
10,35464954.850508678
605,0.0
642,39961638.167780999
2,1, 7,21, 0,20,40.00,50.00,SummerDesignDay
8,15.779503718563929
10,35464954.850508678
605,0.0
642,36982121.81591241
2,1, 7,21, 0,20,50.00,60.00,SummerDesignDay
8,15.699515709672767
10,35464954.850508678
605,0.0
642,34631510.45081693
2,1, 7,21, 0,20, 0.00,60.00,SummerDesignDay
331,23.940726304562309
371,24.000000000000005
411,23.972580106846043
451,24.000000000000019
491,24.00000000000001
2,1, 7,21, 0,21, 0.00,10.00,SummerDesignDay
8,15.63389147320404
10,35464954.850508678
605,0.0
642,32702872.627615595
2,1, 7,21, 0,21,10.00,20.00,SummerDesignDay
8,15.56810827419793
10,35464954.850508678
605,0.0
642,30774518.934407377
2,1, 7,21, 0,21,20.00,30.00,SummerDesignDay
8,15.502170882753524
10,35464954.850508678
605,0.0
642,29513106.64656131
2,1, 7,21, 0,21,30.00,40.00,SummerDesignDay
8,15.436068032613852
10,35464954.850508678
605,0.0
642,29041616.298188487
2,1, 7,21, 0,21,40.00,50.00,SummerDesignDay
8,15.369804371206009
10,35464954.850508678
605,0.0
642,28565442.736354785
2,1, 7,21, 0,21,50.00,60.00,SummerDesignDay
8,15.303384603594449
10,35464954.850508678
605,0.0
642,28083332.359858544
2,1, 7,21, 0,21, 0.00,60.00,SummerDesignDay
331,23.650895117659276
371,24.000000000000026
411,23.398787400517326
451,24.00000000000001
491,23.900065110205177
2,1, 7,21, 0,22, 0.00,10.00,SummerDesignDay
8,15.236797685071274
10,35464954.850508678
605,0.0
642,27558496.65132406
2,1, 7,21, 0,22,10.00,20.00,SummerDesignDay
8,15.170047891787942
10,35464954.850508678
605,0.0
642,26958635.634577015
2,1, 7,21, 0,22,20.00,30.00,SummerDesignDay
8,15.103134826860483
10,35464954.850508678
605,0.0
642,26351574.38170144
2,1, 7,21, 0,22,30.00,40.00,SummerDesignDay
8,15.036063385178485
10,35464954.850508678
605,0.0
642,25738324.649842875
2,1, 7,21, 0,22,40.00,50.00,SummerDesignDay
8,14.968821767219835
10,35464954.850508678
605,0.0
642,25119643.008902246
2,1, 7,21, 0,22,50.00,60.00,SummerDesignDay
8,14.90141525878635
10,35464954.850508678
605,0.0
642,24496355.64166057
2,1, 7,21, 0,22, 0.00,60.00,SummerDesignDay
331,23.272675789889275
371,24.00000000000001
411,22.55099504123721
451,24.0
491,23.22749052317124
2,1, 7,21, 0,23, 0.00,10.00,SummerDesignDay
8,14.848873673278373
10,35464954.850508678
605,0.0
642,23986057.243427684
2,1, 7,21, 0,23,10.00,20.00,SummerDesignDay
8,14.796237168136719
10,35464954.850508678
605,1887535.3063947904
642,23472908.87746778
2,1, 7,21, 0,23,20.00,30.00,SummerDesignDay
8,14.743494321455645
10,35464954.850508678
605,2458483.2256086377
642,22959496.594937244
2,1, 7,21, 0,23,30.00,40.00,SummerDesignDay
8,14.690649975253665
10,35464954.850508678
605,3335737.4893693316
642,22450775.582890974
2,1, 7,21, 0,23,40.00,50.00,SummerDesignDay
8,14.637704281233117
10,35464954.850508678
605,4220057.4444669219
642,21949181.761150134
2,1, 7,21, 0,23,50.00,60.00,SummerDesignDay
8,14.584656914839757
10,35464954.850508678
605,5058084.382811962
642,21454577.435149947
2,1, 7,21, 0,23, 0.00,60.00,SummerDesignDay
331,22.891168756313847
371,24.000000000000033
411,22.01271588095537
451,24.00000000000003
491,22.474774948590836
2,1, 7,21, 0,24, 0.00,10.00,SummerDesignDay
8,14.531507212058875
10,35464954.850508678
605,5880625.91741093
642,20965884.046945864
2,1, 7,21, 0,24,10.00,20.00,SummerDesignDay
8,14.47825496413355
10,35464954.850508678
605,7736153.2568263509
642,20481940.5472923
2,1, 7,21, 0,24,20.00,30.00,SummerDesignDay
8,14.4249000133173
10,35464954.850508678
605,9733079.89831491
642,20004724.44073407
2,1, 7,21, 0,24,30.00,40.00,SummerDesignDay
8,14.371447531304272
10,35464954.850508678
605,11194352.670362426
642,19531745.787099575
2,1, 7,21, 0,24,40.00,50.00,SummerDesignDay
8,14.31788619902223
10,35464954.850508678
605,12905187.983941123
642,19065712.985318934
2,1, 7,21, 0,24,50.00,60.00,SummerDesignDay
8,14.264220970176066
10,35464954.850508678
605,14549853.79540482
642,18533694.29792324
2,1, 7,21, 0,24, 0.00,60.00,SummerDesignDay
331,22.549329760378897
371,24.00000000000001
411,22.000001783609279
451,24.000000000000019
491,22.018515259948449
3,1, 7,21, 0,SummerDesignDay
332,46.9345769314051,41.975973465865859,19,50,53.33121962006027, 7,10
372,46.68021903553722,44.98534698555276,21,60,50.06130321880688, 7,10
412,50.195151549320829,41.17318795080838,15,60,62.75612321989754, 6,10
452,48.718488960861439,47.89825887905766,18,60,50.825069071467577, 7,10
492,49.92686136555099,41.97048806160824,16,40,60.73527128972417, 6,10
4,1, 7
7,22.2505,16.5,21, 5,60,28.9,21,14,60
1,FORT MCMURRAY AP ANN HTG 99.6% CONDNS DB,  56.65,-111.22,  -7.00, 369.10
2,1, 1,21, 0, 1, 0.00,10.00,WinterDesignDay
8,-36.2
10,35464954.850508678
605,746618968.1120517
642,0.0
2,1, 1,21, 0, 1,10.00,20.00,WinterDesignDay
8,-36.2
10,35464954.850508678
605,746622694.1661605
642,0.0
2,1, 1,21, 0, 1,20.00,30.00,WinterDesignDay
8,-36.2
10,35464954.850508678
605,746625972.0865367
642,0.0
2,1, 1,21, 0, 1,30.00,40.00,WinterDesignDay
8,-36.2
10,35464954.850508678
605,746628860.2528764
642,0.0
2,1, 1,21, 0, 1,40.00,50.00,WinterDesignDay
8,-36.2
10,35464954.850508678
605,746631411.5337432
642,0.0
2,1, 1,21, 0, 1,50.00,60.00,WinterDesignDay
8,-36.2
10,35464954.850508678
605,746633670.2991386
642,0.0
2,1, 1,21, 0, 1, 0.00,60.00,WinterDesignDay
331,18.00000000000001
371,22.000000000000019
411,22.00000000000001
451,22.000000000000019
491,22.000000000000015
2,1, 1,21, 0, 2, 0.00,10.00,WinterDesignDay
8,-36.2
10,35464954.850508678
605,534346729.51352027
642,0.0
2,1, 1,21, 0, 2,10.00,20.00,WinterDesignDay
8,-36.2
10,35464954.850508678
605,623013097.1577444
642,0.0
2,1, 1,21, 0, 2,20.00,30.00,WinterDesignDay
8,-36.2
10,35464954.850508678
605,648038014.708617
642,0.0
2,1, 1,21, 0, 2,30.00,40.00,WinterDesignDay
8,-36.2
10,35464954.850508678
605,663407489.8542645
642,0.0
2,1, 1,21, 0, 2,40.00,50.00,WinterDesignDay
8,-36.2
10,35464954.850508678
605,667015472.2765218
642,0.0
2,1, 1,21, 0, 2,50.00,60.00,WinterDesignDay
8,-36.2
10,35464954.850508678
605,669781684.9036021
642,0.0
2,1, 1,21, 0, 2, 0.00,60.00,WinterDesignDay
331,18.000000000000008
371,18.24552919046282
411,18.035742056716385
451,18.296816504433044
491,18.036488242326447
2,1, 1,21, 0, 3, 0.00,10.00,WinterDesignDay
8,-36.2
10,35464954.850508678
605,670872594.1398249
642,0.0
2,1, 1,21, 0, 3,10.00,20.00,WinterDesignDay
8,-36.2
10,35464954.850508678
605,671683254.0893375
642,0.0
2,1, 1,21, 0, 3,20.00,30.00,WinterDesignDay
8,-36.2
10,35464954.850508678
605,672315499.8325832
642,0.0
2,1, 1,21, 0, 3,30.00,40.00,WinterDesignDay
8,-36.2
10,35464954.850508678
605,672784822.8528473
642,0.0
2,1, 1,21, 0, 3,40.00,50.00,WinterDesignDay
8,-36.2
10,35464954.850508678
605,673154461.8631475
642,0.0
2,1, 1,21, 0, 3,50.00,60.00,WinterDesignDay
8,-36.2
10,35464954.850508678
605,673427710.0309603
642,0.0
2,1, 1,21, 0, 3, 0.00,60.00,WinterDesignDay
331,18.000000000000005
371,18.000000000000026
411,18.000000000021374
451,18.00000000000009
491,18.00000000002031
2,1, 1,21, 0, 4, 0.00,10.00,WinterDesignDay
8,-36.2
10,35464954.850508678
605,673627487.8620246
642,0.0
2,1, 1,21, 0, 4,10.00,20.00,WinterDesignDay
8,-36.2
10,35464954.850508678
605,673796361.1555445
642,0.0
2,1, 1,21, 0, 4,20.00,30.00,WinterDesignDay
8,-36.2
10,35464954.850508678
605,673936021.1580827
642,0.0
2,1, 1,21, 0, 4,30.00,40.00,WinterDesignDay
8,-36.2
10,35464954.850508678
605,674029946.2897713
642,0.0
2,1, 1,21, 0, 4,40.00,50.00,WinterDesignDay
8,-36.2
10,35464954.850508678
605,674108784.4262598
642,0.0
2,1, 1,21, 0, 4,50.00,60.00,WinterDesignDay
8,-36.2
10,35464954.850508678
605,674178119.1275631
642,0.0
2,1, 1,21, 0, 4, 0.00,60.00,WinterDesignDay
331,18.000000000000005
371,18.00000000000003
411,18.000000000000019
451,18.00000000000003
491,18.00000000000003
2,1, 1,21, 0, 5, 0.00,10.00,WinterDesignDay
8,-36.2
10,35464954.850508678
605,674235748.781986
642,0.0
2,1, 1,21, 0, 5,10.00,20.00,WinterDesignDay
8,-36.2
10,35464954.850508678
605,674282856.0688059
642,0.0
2,1, 1,21, 0, 5,20.00,30.00,WinterDesignDay
8,-36.2
10,35464954.850508678
605,674321247.1818997
642,0.0
2,1, 1,21, 0, 5,30.00,40.00,WinterDesignDay
8,-36.2
10,35464954.850508678
605,674352607.066577
642,0.0
2,1, 1,21, 0, 5,40.00,50.00,WinterDesignDay
8,-36.2
10,35464954.850508678
605,674378340.4466853
642,0.0
2,1, 1,21, 0, 5,50.00,60.00,WinterDesignDay
8,-36.2
10,35464954.850508678
605,674393650.2394047
642,0.0
2,1, 1,21, 0, 5, 0.00,60.00,WinterDesignDay
331,18.000000000000005
371,18.00000000000002
411,18.000000000000019
451,18.000000000000037
491,18.000000000000037
2,1, 1,21, 0, 6, 0.00,10.00,WinterDesignDay
8,-36.2
10,35464954.850508678
605,674406211.2544746
642,0.0
2,1, 1,21, 0, 6,10.00,20.00,WinterDesignDay
8,-36.2
10,35464954.850508678
605,674418746.2116144
642,0.0
2,1, 1,21, 0, 6,20.00,30.00,WinterDesignDay
8,-36.2
10,35464954.850508678
605,674430437.2264488
642,0.0
2,1, 1,21, 0, 6,30.00,40.00,WinterDesignDay
8,-36.2
10,35464954.850508678
605,674441100.8009272
642,0.0
2,1, 1,21, 0, 6,40.00,50.00,WinterDesignDay
8,-36.2
10,35464954.850508678
605,674450653.6536174
642,0.0
2,1, 1,21, 0, 6,50.00,60.00,WinterDesignDay
8,-36.2
10,35464954.850508678
605,674459176.2720106
642,0.0
2,1, 1,21, 0, 6, 0.00,60.00,WinterDesignDay
331,18.000000000000008
371,18.00000000000003
411,18.000000000000008
451,18.000000000000008
491,18.000000000000033
2,1, 1,21, 0, 7, 0.00,10.00,WinterDesignDay
8,-36.2
10,35464954.850508678
605,674466749.3696296
642,0.0
2,1, 1,21, 0, 7,10.00,20.00,WinterDesignDay
8,-36.2
10,35464954.850508678
605,674473485.9304764
642,0.0
2,1, 1,21, 0, 7,20.00,30.00,WinterDesignDay
8,-36.2
10,35464954.850508678
605,674479482.4518304
642,0.0
2,1, 1,21, 0, 7,30.00,40.00,WinterDesignDay
8,-36.2
10,35464954.850508678
605,674484833.9420631
642,0.0
2,1, 1,21, 0, 7,40.00,50.00,WinterDesignDay
8,-36.2
10,35464954.850508678
605,674489620.2611017
642,0.0
2,1, 1,21, 0, 7,50.00,60.00,WinterDesignDay
8,-36.2
10,35464954.850508678
605,674493913.1891555
642,0.0
2,1, 1,21, 0, 7, 0.00,60.00,WinterDesignDay
331,18.000000000000005
371,18.000000000000033
411,18.000000000000019
451,18.000000000000033
491,18.000000000000033
2,1, 1,21, 0, 8, 0.00,10.00,WinterDesignDay
8,-36.2
10,35464954.850508678
605,836758495.1193261
642,0.0
2,1, 1,21, 0, 8,10.00,20.00,WinterDesignDay
8,-36.2
10,35464954.850508678
605,612848846.9253252
642,0.0
2,1, 1,21, 0, 8,20.00,30.00,WinterDesignDay
8,-36.2
10,35464954.850508678
605,754408274.6101823
642,0.0
2,1, 1,21, 0, 8,30.00,40.00,WinterDesignDay
8,-36.2
10,35464954.850508678
605,718096114.8378286
642,0.0
2,1, 1,21, 0, 8,40.00,50.00,WinterDesignDay
8,-36.2
10,35464954.850508678
605,718126329.4535425
642,0.0
2,1, 1,21, 0, 8,50.00,60.00,WinterDesignDay
8,-36.2
10,35464954.850508678
605,717362082.9899969
642,0.0
2,1, 1,21, 0, 8, 0.00,60.00,WinterDesignDay
331,20.038119265047457
371,20.010691836433379
411,19.99717862942524
451,20.016005939390415
491,19.99725433761939
2,1, 1,21, 0, 9, 0.00,10.00,WinterDesignDay
8,-36.2
10,39202923.74259229
605,867799833.1726163
642,0.0
2,1, 1,21, 0, 9,10.00,20.00,WinterDesignDay
8,-36.2
10,39202923.74259229
605,649999274.3197086
642,0.0
2,1, 1,21, 0, 9,20.00,30.00,WinterDesignDay
8,-36.2
10,39202923.74259229
605,791970335.0479217
642,0.0
2,1, 1,21, 0, 9,30.00,40.00,WinterDesignDay
8,-36.2
10,39202923.74259229