Program Version,EnergyPlus, Version 8.9.0-eba93e8e1b, YMD=2019.03.27 19:59
1,5,Environment Title[],Latitude[deg],Longitude[deg],Time Zone[],Elevation[m]
2,8,Day of Simulation[],Month[],Day of Month[],DST Indicator[1=yes 0=no],Hour[],StartMinute[],EndMinute[],DayType
3,5,Cumulative Day of Simulation[],Month[],Day of Month[],DST Indicator[1=yes 0=no],DayType  ! When Daily Report Variables Requested
4,2,Cumulative Days of Simulation[],Month[]  ! When Monthly Report Variables Requested
5,1,Cumulative Days of Simulation[] ! When Run Period Report Variables Requested
6,1,Calendar Year of Simulation[] ! When Annual Report Variables Requested
7,9,Environment,Site Outdoor Air Drybulb Temperature [C] !Monthly [Value,Min,Day,Hour,Minute,Max,Day,Hour,Minute]
8,1,Environment,Site Outdoor Air Wetbulb Temperature [C] !TimeStep
1086,1,ALL_ST=ATRIUM - H < 13M_FL=STORY 2_SCH=C,Zone Air Temperature [C] !Hourly
1087,7,ALL_ST=ATRIUM - H < 13M_FL=STORY 2_SCH=C,Zone Air Relative Humidity [%] !Daily [Value,Min,Hour,Minute,Max,Hour,Minute]
1126,1,ALL_ST=ATRIUM - H > 13M_FL=STORY 4_SCH=C,Zone Air Temperature [C] !Hourly
1127,7,ALL_ST=ATRIUM - H > 13M_FL=STORY 4_SCH=C,Zone Air Relative Humidity [%] !Daily [Value,Min,Hour,Minute,Max,Hour,Minute]
1166,1,ALL_ST=AUDIENCE - AUDITORIUM_FL=STORY 3_SCH=C,Zone Air Temperature [C] !Hourly
1167,7,ALL_ST=AUDIENCE - AUDITORIUM_FL=STORY 3_SCH=C,Zone Air Relative Humidity [%] !Daily [Value,Min,Hour,Minute,Max,Hour,Minute]
1206,1,ALL_ST=AUDIENCE - MOTION PICTURE_FL=STORY 1_SCH=C,Zone Air Temperature [C] !Hourly
1207,7,ALL_ST=AUDIENCE - MOTION PICTURE_FL=STORY 1_SCH=C,Zone Air Relative Humidity [%] !Daily [Value,Min,Hour,Minute,Max,Hour,Minute]
1246,1,ALL_ST=AUDIENCE - PERFORMANCE ARTS_FL=STORY 1_SCH=C,Zone Air Temperature [C] !Hourly
1247,7,ALL_ST=AUDIENCE - PERFORMANCE ARTS_FL=STORY 1_SCH=C,Zone Air Relative Humidity [%] !Daily [Value,Min,Hour,Minute,Max,Hour,Minute]
1286,1,ALL_ST=AUTOMOTIVE - REPAIR_FL=STORY 1_SCH=E,Zone Air Temperature [C] !Hourly
1287,7,ALL_ST=AUTOMOTIVE - REPAIR_FL=STORY 1_SCH=E,Zone Air Relative Humidity [%] !Daily [Value,Min,Hour,Minute,Max,Hour,Minute]
1326,1,ALL_ST=BANK - BANKING AND OFFICES_FL=STORY 2_SCH=A,Zone Air Temperature [C] !Hourly
1327,7,ALL_ST=BANK - BANKING AND OFFICES_FL=STORY 2_SCH=A,Zone Air Relative Humidity [%] !Daily [Value,Min,Hour,Minute,Max,Hour,Minute]
1366,1,ALL_ST=CLASSROOM/LECTURE/TRAINING_FL=STORY 1_SCH=D,Zone Air Temperature [C] !Hourly
1367,7,ALL_ST=CLASSROOM/LECTURE/TRAINING_FL=STORY 1_SCH=D,Zone Air Relative Humidity [%] !Daily [Value,Min,Hour,Minute,Max,Hour,Minute]
1406,1,ALL_ST=CONF./MEET./MULTI-PURPOSE_FL=STORY 2_SCH=C,Zone Air Temperature [C] !Hourly
1407,7,ALL_ST=CONF./MEET./MULTI-PURPOSE_FL=STORY 2_SCH=C,Zone Air Relative Humidity [%] !Daily [Value,Min,Hour,Minute,Max,Hour,Minute]
1446,1,ALL_ST=CONVENTION CENTRE - AUDIENCE_FL=STORY 1_SCH=C,Zone Air Temperature [C] !Hourly
1447,7,ALL_ST=CONVENTION CENTRE - AUDIENCE_FL=STORY 1_SCH=C,Zone Air Relative Humidity [%] !Daily [Value,Min,Hour,Minute,Max,Hour,Minute]
1486,1,ALL_ST=CONVENTION CENTRE - EXHIBIT_FL=STORY 2_SCH=C,Zone Air Temperature [C] !Hourly
1487,7,ALL_ST=CONVENTION CENTRE - EXHIBIT_FL=STORY 2_SCH=C,Zone Air Relative Humidity [%] !Daily [Value,Min,Hour,Minute,Max,Hour,Minute]
1526,1,ALL_ST=WHOLEBUILDING_FL=STORY 3_SCH=C,Zone Air Temperature [C] !Hourly
1527,7,ALL_ST=WHOLEBUILDING_FL=STORY 3_SCH=C,Zone Air Relative Humidity [%] !Daily [Value,Min,Hour,Minute,Max,Hour,Minute]
1566,1,ALL_ST=WHOLEBUILDING_FL=STORY 3_SCH=D,Zone Air Temperature [C] !Hourly
1567,7,ALL_ST=WHOLEBUILDING_FL=STORY 3_SCH=D,Zone Air Relative Humidity [%] !Daily [Value,Min,Hour,Minute,Max,Hour,Minute]
1606,1,ALL_ST=WHOLEBUILDING_FL=STORY 3_SCH=H,Zone Air Temperature [C] !Hourly
1607,7,ALL_ST=WHOLEBUILDING_FL=STORY 3_SCH=H,Zone Air Relative Humidity [%] !Daily [Value,Min,Hour,Minute,Max,Hour,Minute]
1646,1,ALL_ST=WHOLEBUILDING_FL=STORY 3_SCH=I,Zone Air Temperature [C] !Hourly
1647,7,ALL_ST=WHOLEBUILDING_FL=STORY 3_SCH=I,Zone Air Relative Humidity [%] !Daily [Value,Min,Hour,Minute,Max,Hour,Minute]
1686,1,ALL_ST=WHOLEBUILDING_FL=STORY 4_SCH=A,Zone Air Temperature [C] !Hourly
1687,7,ALL_ST=WHOLEBUILDING_FL=STORY 4_SCH=A,Zone Air Relative Humidity [%] !Daily [Value,Min,Hour,Minute,Max,Hour,Minute]
1726,1,ALL_ST=WHOLEBUILDING_FL=STORY 4_SCH=C,Zone Air Temperature [C] !Hourly
1727,7,ALL_ST=WHOLEBUILDING_FL=STORY 4_SCH=C,Zone Air Relative Humidity [%] !Daily [Value,Min,Hour,Minute,Max,Hour,Minute]
1766,1,ALL_ST=WHOLEBUILDING_FL=STORY 4_SCH=H,Zone Air Temperature [C] !Hourly
1767,7,ALL_ST=WHOLEBUILDING_FL=STORY 4_SCH=H,Zone Air Relative Humidity [%] !Daily [Value,Min,Hour,Minute,Max,Hour,Minute]
1806,1,DU_BT=PENITENTIARY_ST=WHOLEBUILDING_FL=STORY 4_SCHH,Zone Air Temperature [C] !Hourly
1807,7,DU_BT=PENITENTIARY_ST=WHOLEBUILDING_FL=STORY 4_SCHH,Zone Air Relative Humidity [%] !Daily [Value,Min,Hour,Minute,Max,Hour,Minute]
1846,1,DU_BT=SPACE FUNCTION_ST=COURTHOUSE - CELL_FL=STORY 2_SCHH,Zone Air Temperature [C] !Hourly
1847,7,DU_BT=SPACE FUNCTION_ST=COURTHOUSE - CELL_FL=STORY 2_SCHH,Zone Air Relative Humidity [%] !Daily [Value,Min,Hour,Minute,Max,Hour,Minute]
10,1,Electricity:Facility [J] !TimeStep
852,1,Gas:Facility [J] !TimeStep
End of Data Dictionary
1,FORT MCMURRAY AP ANN CLG .4% CONDNS DB=>MWB,  56.65,-111.22,  -7.00, 369.10
2,1, 7,21, 0, 1, 0.00,10.00,SummerDesignDay
8,14.218136923962174
10,138044217.7981832
852,17485165.49849718
2,1, 7,21, 0, 1,10.00,20.00,SummerDesignDay
8,14.171982153293495
10,137805326.25544984
852,46731065.47677289
2,1, 7,21, 0, 1,20.00,30.00,SummerDesignDay
8,14.125744780286427
10,137455097.24918137
852,64276919.652927529
2,1, 7,21, 0, 1,30.00,40.00,SummerDesignDay
8,14.079436086331978
10,137131780.4595029
852,64034967.72559748
2,1, 7,21, 0, 1,40.00,50.00,SummerDesignDay
8,14.033050387896898
10,136807656.41075198
852,49299556.153168927
2,1, 7,21, 0, 1,50.00,60.00,SummerDesignDay
8,13.986581233564835
10,136519807.38764156
852,17259768.991247015
2,1, 7,21, 0, 1, 0.00,60.00,SummerDesignDay
1086,23.52106960180767
1126,21.110355382311835
1166,21.877232091980195
1206,21.171378657117989
1246,21.36382867785269
1286,22.992348939675279
1326,24.031505654679675
1366,21.79767810947281
1406,23.529962167909049
1446,21.198113785255356
1486,24.167166402885074
1526,24.07796413629818
1566,24.961625466887658
1606,23.99875372964344
1646,25.111887766760263
1686,20.624222369206348
1726,23.74530473736588
1766,24.000071147839618
1806,23.99917969953019
1846,23.99776605256102
2,1, 7,21, 0, 2, 0.00,10.00,SummerDesignDay
8,13.95555882260429
10,130584533.85517566
852,61221536.95243797
2,1, 7,21, 0, 2,10.00,20.00,SummerDesignDay
8,13.924507755336454
10,130366810.61326154
852,63623365.573950309
2,1, 7,21, 0, 2,20.00,30.00,SummerDesignDay
8,13.893416042989206
10,130130260.04248655
852,64272874.20678651
2,1, 7,21, 0, 2,30.00,40.00,SummerDesignDay
8,13.862289589689029
10,129890333.42863803
852,29528396.391817515
2,1, 7,21, 0, 2,40.00,50.00,SummerDesignDay
8,13.831134407608739
10,129656741.31123221
852,34175070.72616616
2,1, 7,21, 0, 2,50.00,60.00,SummerDesignDay
8,13.799938415548118
10,129442102.44892979
852,63542134.052998308
2,1, 7,21, 0, 2, 0.00,60.00,SummerDesignDay
1086,23.39453118729809
1126,20.85667483471729
1166,21.40964543726246
1206,20.719991341291494
1246,20.898582897727278
1286,22.705003038510254
1326,23.942738994359343
1366,21.383649525186759
1406,23.187678934693623
1446,20.745177985777347
1486,23.894828185765836
1526,23.91872395103829
1566,24.670904254364275
1606,23.998432758196175
1646,24.913767193859756
1686,20.3626139807207
1726,23.36989334238012
1766,24.00004718432096
1806,23.998991748372235
1846,23.997192816288288
2,1, 7,21, 0, 3, 0.00,10.00,SummerDesignDay
8,13.776521671948676
10,129137320.5664736
852,63710818.70030316
2,1, 7,21, 0, 3,10.00,20.00,SummerDesignDay
8,13.753085235778466
10,129148289.91271901
852,55738248.649426538
2,1, 7,21, 0, 3,20.00,30.00,SummerDesignDay
8,13.729636002354969
10,128795757.24777006
852,15368375.147585595
2,1, 7,21, 0, 3,30.00,40.00,SummerDesignDay
8,13.706147375533054
10,128643442.36045958
852,56303557.393166627
2,1, 7,21, 0, 3,40.00,50.00,SummerDesignDay
8,13.682651961920304
10,128493380.15733747
852,63606128.41860059
2,1, 7,21, 0, 3,50.00,60.00,SummerDesignDay
8,13.659136670643687
10,128323419.3459398
852,63799543.22434061
2,1, 7,21, 0, 3, 0.00,60.00,SummerDesignDay
1086,23.266195818676889
1126,20.639935239971107
1166,21.04880420593301
1206,20.38278153771957
1246,20.54966166340957
1286,22.486285140965987
1326,23.852876904868994
1366,21.07445567930962
1406,22.908695511698168
1446,20.405335416172595
1486,23.666006007053317
1526,23.75814579424994
1566,24.38571201284202
1606,23.998479328454939
1646,24.5111035903882
1686,20.135977419818777
1726,23.05990702749246
1766,23.996621778867284
1806,23.99905042972838
1846,23.99727578569822
2,1, 7,21, 0, 4, 0.00,10.00,SummerDesignDay
8,13.63560137410855
10,128150686.21963395
852,34167721.46981278
2,1, 7,21, 0, 4,10.00,20.00,SummerDesignDay
8,13.612040802606578
10,127983428.92016709
852,29579553.63510762
2,1, 7,21, 0, 4,20.00,30.00,SummerDesignDay
8,13.58846620506876
10,127837721.59023576
852,63531982.96513928
2,1, 7,21, 0, 4,30.00,40.00,SummerDesignDay
8,13.56487178447336
10,127674771.55518253
852,63692209.64496367
2,1, 7,21, 0, 4,40.00,50.00,SummerDesignDay
8,13.541257354069103
10,127501249.50381331
852,60248972.84352901
2,1, 7,21, 0, 4,50.00,60.00,SummerDesignDay
8,13.517617463812285
10,127326641.06481929
852,15609651.377154099
2,1, 7,21, 0, 4, 0.00,60.00,SummerDesignDay
1086,23.130874068557405
1126,20.439412831549967
1166,20.72722897111301
1206,20.085142974379683
1246,20.242255284010928
1286,22.293337400605826
1326,23.760147586826034
1366,20.802967926794847
1406,22.65102710312487
1446,20.1043609745473
1486,23.452398303404818
1526,23.596706574188617
1566,24.11524706945619
1606,23.998518026961674
1646,24.287746064343027
1686,19.925149977877486
1726,22.787983710720796
1766,23.916283969752774
1806,23.999106995012125
1846,23.99736093307796
2,1, 7,21, 0, 5, 0.00,10.00,SummerDesignDay
8,13.50185415824011
10,127194728.2990404
852,51578134.12910468
2,1, 7,21, 0, 5,10.00,20.00,SummerDesignDay
8,13.486076034032447
10,127467301.60596816
852,63590317.89172991
2,1, 7,21, 0, 5,20.00,30.00,SummerDesignDay
8,13.470289340350983
10,127715793.2776603
852,63780708.0696971
2,1, 7,21, 0, 5,30.00,40.00,SummerDesignDay
8,13.454493322631063
10,128011099.1447736
852,38764295.861593957
2,1, 7,21, 0, 5,40.00,50.00,SummerDesignDay
8,13.438688835118548
10,128358173.1528104
852,25024355.873716725
2,1, 7,21, 0, 5,50.00,60.00,SummerDesignDay
8,13.422888173889437
10,128719415.32513276
852,63522976.68014471
2,1, 7,21, 0, 5, 0.00,60.00,SummerDesignDay
1086,23.10401048198626
1126,20.315997249138733
1166,20.44501666022475
1206,19.81962857051016
1246,19.968824351609784
1286,22.116097348952626
1326,23.66619507875538
1366,20.559075689662895
1406,22.4131337058808
1446,19.83478913508149
1486,23.306397853430423
1526,23.505483183903963
1566,23.862565919278159
1606,23.998550967493516
1646,24.190875873676988
1686,19.791020127316885
1726,22.70132137160104
1766,23.829242663535309
1806,23.998943485149395
1846,23.9974303199193
2,1, 7,21, 0, 6, 0.00,10.00,SummerDesignDay
8,13.438688835118548
10,129137810.14836706
852,63673685.39618776
2,1, 7,21, 0, 6,10.00,20.00,SummerDesignDay
8,13.454493322631063
10,129537215.5588974
852,63870226.13504353
2,1, 7,21, 0, 6,20.00,30.00,SummerDesignDay
8,13.470289340350983
10,129927089.48065645
852,16708605.989601627
2,1, 7,21, 0, 6,30.00,40.00,SummerDesignDay
8,13.486076034032447
10,130315464.72489536
852,46880451.53104057
2,1, 7,21, 0, 6,40.00,50.00,SummerDesignDay
8,13.50185415824011
10,131056742.6210737
852,63575779.52327139
2,1, 7,21, 0, 6,50.00,60.00,SummerDesignDay
8,13.517617463812285
10,131499334.61017932
852,63761922.79942719
2,1, 7,21, 0, 6, 0.00,60.00,SummerDesignDay
1086,23.470805770995157
1126,20.43599198575267
1166,20.335199734450815
1206,19.718295480590944
1246,19.864873237267813
1286,22.016638215532884
1326,23.578916950288435
1366,20.446948173353485
1406,22.273371382585457
1446,19.724930593889714
1486,23.277397553359369
1526,23.498215941911068
1566,23.683918647562935
1606,23.998575984650448
1646,24.52439642074765
1686,19.894313128336465
1726,23.041347801538689
1766,23.945704903899473
1806,23.998246314856819
1846,23.99744774639287
2,1, 7,21, 0, 7, 0.00,10.00,SummerDesignDay
8,13.572736920571789
10,132115765.48075122
852,43336652.905455339
2,1, 7,21, 0, 7,10.00,20.00,SummerDesignDay
8,13.627748229152554
10,132762843.61902343
852,20489088.0185185
2,1, 7,21, 0, 7,20.00,30.00,SummerDesignDay
8,13.682651961920304
10,133432259.5127817
852,63515052.80497863
2,1, 7,21, 0, 7,30.00,40.00,SummerDesignDay
8,13.737448093244995
10,134107742.18827805
852,63655156.36085428
2,1, 7,21, 0, 7,40.00,50.00,SummerDesignDay
8,13.792137011831216
10,134787817.10005138
852,63851339.43208408
2,1, 7,21, 0, 7,50.00,60.00,SummerDesignDay
8,13.846719282840333
10,135486580.38513098
852,21424807.191765954
2,1, 7,21, 0, 7, 0.00,60.00,SummerDesignDay
1086,23.87712760964125
1126,20.77670454137789
1166,20.53354742075241
1206,19.931234273030495
1246,20.089823955395393
1286,22.081476734965336
1326,23.49799707880402
1366,20.596892420911023
1406,22.309781934028565
1446,19.926130044156829
1486,23.230126873523774
1526,23.364692666331437
1566,23.63287501025576
1606,23.998596067095336
1646,25.045286172021265
1686,20.214280243922855
1726,23.386742647097877
1766,23.999996633370743
1806,23.997535909906465
1846,23.997425982469627
2,1, 7,21, 0, 8, 0.00,10.00,SummerDesignDay
8,13.978831900527043
10,148570168.36072985
852,66030551.54478968
2,1, 7,21, 0, 8,10.00,20.00,SummerDesignDay
8,14.110321014287419
10,148559067.3855006
852,75619668.01568465
2,1, 7,21, 0, 8,20.00,30.00,SummerDesignDay
8,14.241191509616986
10,151100524.70094107
852,67465508.29848747
2,1, 7,21, 0, 8,30.00,40.00,SummerDesignDay
8,14.371447531304272
10,153635081.64806659
852,51117070.84529419
2,1, 7,21, 0, 8,40.00,50.00,SummerDesignDay
8,14.501093766564925
10,152686405.723341
852,16798254.14381773
2,1, 7,21, 0, 8,50.00,60.00,SummerDesignDay
8,14.630134792273804
10,154308762.77768249
852,60345854.12935151
2,1, 7,21, 0, 8, 0.00,60.00,SummerDesignDay
1086,24.000007900055068
1126,21.438293445388998
1166,21.226543437803135
1206,20.64447496711784
1246,20.827364832991607
1286,22.402113494174825
1326,23.735629563279088
1366,21.16401187744502
1406,22.62873874411804
1446,20.630974106330755
1486,23.401352708492813
1526,23.301780330380969
1566,23.781329293283308
1606,23.998918288223718
1646,25.620357704486776
1686,22.022823036415376
1726,23.917583266881008
1766,23.999920405613297
1806,23.997404711561264
1846,23.99790227139268
2,1, 7,21, 0, 9, 0.00,10.00,SummerDesignDay
8,14.773641492809972
10,269128316.8638284
852,127972095.25716803
2,1, 7,21, 0, 9,10.00,20.00,SummerDesignDay
8,14.91640948124148
10,272476695.65720197
852,77518510.37121311
2,1, 7,21, 0, 9,20.00,30.00,SummerDesignDay
8,15.05843890714102
10,275294681.1955733
852,77424678.75883177
2,1, 7,21, 0, 9,30.00,40.00,SummerDesignDay
8,15.199735893563798
10,277930546.5322394
852,77416943.74356303
2,1, 7,21, 0, 9,40.00,50.00,SummerDesignDay
8,15.340306256439395
10,282520174.2797317
852,77490648.9482367
2,1, 7,21, 0, 9,50.00,60.00,SummerDesignDay
8,15.48015101768072
10,285060994.26941
852,69556068.55403072
2,1, 7,21, 0, 9, 0.00,60.00,SummerDesignDay
1086,23.99999292795457
1126,22.752783980103204
1166,22.824085286067356
1206,22.560407704094147
1246,22.915741156677595
1286,23.45224486752828
1326,23.999210635854536
1366,22.73499083609101
1406,23.675377262887378
1446,22.480191382045253
1486,23.965148387222049
1526,23.817360378771015
1566,23.99905370032287
1606,23.999098209442847
1646,26.306693558919137
1686,23.46977648917974
1726,23.999753052455018
1766,23.999838601362034
1806,23.997466306611945
1846,23.998183806177097
2,1, 7,21, 0,10, 0.00,10.00,SummerDesignDay
8,15.60467292907716
10,399856219.9637398
852,73306444.56173136
2,1, 7,21, 0,10,10.00,20.00,SummerDesignDay
8,15.72862731650033
10,412326499.01176139
852,75028013.06418513
2,1, 7,21, 0,10,20.00,30.00,SummerDesignDay
8,15.852017409284228
10,423766237.27056279
852,75303861.72247464
2,1, 7,21, 0,10,30.00,40.00,SummerDesignDay
8,15.974848118364367
10,427783862.9021931
852,75136202.88921163
2,1, 7,21, 0,10,40.00,50.00,SummerDesignDay
8,16.097123145563505
10,434988245.6321145
852,75088266.5202938
2,1, 7,21, 0,10,50.00,60.00,SummerDesignDay
8,16.218846351168599
10,441927849.48968926
852,75048966.57483527
2,1, 7,21, 0,10, 0.00,60.00,SummerDesignDay
1086,23.999953522915225
1126,23.909257068075715
1166,23.958031340935507
1206,23.889926986677144
1246,23.981719529361553
1286,23.999517772467017
1326,23.999655897426285
1366,23.96782942993332
1406,23.999639447646385
1446,23.839900941973185
1486,23.99953614443581
1526,23.99996446117356
1566,23.998724674257564
1606,23.998841010383776
1646,26.955350765049574
1686,23.99964141641642
1726,23.99937952090745
1766,23.999746018596086
1806,23.99679360581078
1846,23.997586873684104
2,1, 7,21, 0,11, 0.00,10.00,SummerDesignDay
8,16.325793027093189
10,460718394.18545308
852,95391617.23711983
2,1, 7,21, 0,11,10.00,20.00,SummerDesignDay
8,16.432322158488288
10,467896762.6071207
852,107729322.25995729
2,1, 7,21, 0,11,20.00,30.00,SummerDesignDay
8,16.538424180249178
10,473915783.85523429
852,113754802.52625686
2,1, 7,21, 0,11,30.00,40.00,SummerDesignDay
8,16.644108396469087
10,479779698.2770352
852,113826679.3716128
2,1, 7,21, 0,11,40.00,50.00,SummerDesignDay
8,16.749376736593655
10,485504828.2987837
852,113903083.44158882
2,1, 7,21, 0,11,50.00,60.00,SummerDesignDay
8,16.854232613237156
10,491141711.5007548
852,112171796.33718972
2,1, 7,21, 0,11, 0.00,60.00,SummerDesignDay
1086,23.999757499227028
1126,23.99963568571027
1166,23.999234950832336
1206,23.999411383499124
1246,23.999461074245564
1286,23.9990910579409
1326,23.999403808373729
1366,23.997800396074124
1406,23.99900102465789
1446,23.999467077802817
1486,23.998829821353636
1526,23.999915373313333
1566,23.997820131937798
1606,23.998598246639266
1646,27.341062287118488
1686,23.99915704448124
1726,23.998883792179485
1766,23.999743910837926
1806,23.99648547399133
1846,23.99693885387987
2,1, 7,21, 0,12, 0.00,10.00,SummerDesignDay
8,16.92390823520069
10,495416061.00927236
852,101402784.6814819
2,1, 7,21, 0,12,10.00,20.00,SummerDesignDay
8,16.99340178950456
10,499833111.11583539
852,101789081.33327529
2,1, 7,21, 0,12,20.00,30.00,SummerDesignDay
8,17.06272006743463
10,504009835.2547117
852,101737732.09613751
2,1, 7,21, 0,12,30.00,40.00,SummerDesignDay
8,17.131853229172639
10,508167354.26543506
852,101684326.84957502
2,1, 7,21, 0,12,40.00,50.00,SummerDesignDay
8,17.200807172194087
10,512221007.9256108
852,101629985.31559704
2,1, 7,21, 0,12,50.00,60.00,SummerDesignDay
8,17.269582116758607
10,516193904.3479244
852,122221568.0358529
2,1, 7,21, 0,12, 0.00,60.00,SummerDesignDay
1086,23.999516381094755
1126,23.99934430250121
1166,23.998897219904554
1206,23.999268475847605
1246,23.999343892685446
1286,23.998960319089055
1326,23.999213306353999
1366,23.997494378379316
1406,23.998557436091486
1446,23.99936762858243
1486,23.99832357841996
1526,23.99981897442463
1566,23.997275002849695
1606,23.99856221996082
1646,27.579285211942918
1686,23.999003841471845
1726,23.9985562965926
1766,23.999837024911359
1806,23.99667868733282
1846,23.99670650555619
2,1, 7,21, 0,13, 0.00,10.00,SummerDesignDay
8,17.32447360221357
10,523833076.71846607
852,155890373.1303877
2,1, 7,21, 0,13,10.00,20.00,SummerDesignDay
8,17.379251291230806
10,528156458.07037827
852,115991737.27641464
2,1, 7,21, 0,13,20.00,30.00,SummerDesignDay
8,17.433921312061729
10,531624385.8042283
852,171820989.2993543
2,1, 7,21, 0,13,30.00,40.00,SummerDesignDay
8,17.488473222557489
10,535255409.19622829
852,116817060.0663619
2,1, 7,21, 0,13,40.00,50.00,SummerDesignDay
8,17.542913447755134
10,538663313.6918876
852,115923653.72774773
2,1, 7,21, 0,13,50.00,60.00,SummerDesignDay
8,17.59724609886134
10,542070574.2568876
852,172593135.38825924
2,1, 7,21, 0,13, 0.00,60.00,SummerDesignDay
1086,23.999279613549306
1126,23.999206140119769
1166,23.99820146099485
1206,23.99875101799036
1246,23.998952419902709
1286,23.998770933822838
1326,23.99923306743513
1366,23.997551746395474
1406,23.99765017451708
1446,23.998890657125558
1486,23.9973351305151
1526,23.999634324857494
1566,23.997188424160958
1606,23.998508348893578
1646,27.981419858593033
1686,23.999161072720808
1726,23.998000962457686
1766,23.99997520584533
1806,23.99662560147083
1846,23.99654149749887
2,1, 7,21, 0,14, 0.00,10.00,SummerDesignDay
8,17.6311450462694
10,544330978.7995795
852,116512794.30815129
2,1, 7,21, 0,14,10.00,20.00,SummerDesignDay
8,17.665000449016245
10,546621405.9377403
852,172593135.38825924
2,1, 7,21, 0,14,20.00,30.00,SummerDesignDay
8,17.698812743128934
10,548847320.8185699
852,116616977.64033525
2,1, 7,21, 0,14,30.00,40.00,SummerDesignDay
8,17.732582050940107
10,550937574.4356955
852,122187234.24511287
2,1, 7,21, 0,14,40.00,50.00,SummerDesignDay
8,17.766307345121004
10,553192454.3454753
852,166898906.87209139
2,1, 7,21, 0,14,50.00,60.00,SummerDesignDay
8,17.79999023167558
10,555280366.7133526
852,116550550.97416094
2,1, 7,21, 0,14, 0.00,60.00,SummerDesignDay
1086,23.999111930862438
1126,23.999124683782424
1166,23.997601320312517
1206,23.998356171248429
1246,23.998601148234149
1286,23.998459288585868
1326,23.999293855428737
1366,23.997495547302795
1406,23.996867989429405
1446,23.998538027317769
1486,23.996555666102993
1526,23.99951277705495
1566,23.997051738222998
1606,23.99844464465467
1646,28.372806160885916
1686,23.99930298131566
1726,23.997584697358346
1766,23.999983639943495
1806,23.996602175133956
1846,23.996473652055685
2,1, 7,21, 0,15, 0.00,10.00,SummerDesignDay
8,17.79999023167558
10,569232276.5086845
852,172593135.3882592
2,1, 7,21, 0,15,10.00,20.00,SummerDesignDay
8,17.79999023167558
10,569749698.6181433
852,116150411.60608489
2,1, 7,21, 0,15,20.00,30.00,SummerDesignDay
8,17.79999023167558
10,568020544.9928246
852,133061179.11220004
2,1, 7,21, 0,15,30.00,40.00,SummerDesignDay
8,17.79999023167558
10,566920013.2505138
852,155731835.36065833
2,1, 7,21, 0,15,40.00,50.00,SummerDesignDay
8,17.79999023167558
10,566325604.7631389
852,116259082.34887138
2,1, 7,21, 0,15,50.00,60.00,SummerDesignDay
8,17.79999023167558
10,566998561.2616727
852,172593135.38825924
2,1, 7,21, 0,15, 0.00,60.00,SummerDesignDay
1086,23.99942570737855
1126,23.999456597040497
1166,23.998596565152697
1206,23.9990333046608
1246,23.99917346382226
1286,23.99913815997588
1326,23.99952761749057
1366,23.998513749570067
1406,23.997797781461004
1446,23.99914217794499
1486,23.997783496734454
1526,23.999687761113149
1566,23.997950109333755
1606,23.999031031495645
1646,24.603263911382187
1686,23.999532849240624
1726,23.998566361141056
1766,24.00000447066242
1806,23.99807660566019
1846,23.997940121323159
2,1, 7,21, 0,16, 0.00,10.00,SummerDesignDay
8,17.759562446305357
10,572091770.3109757
852,116314073.5920267
2,1, 7,21, 0,16,10.00,20.00,SummerDesignDay
8,17.71907809634183
10,570151878.9422817
852,137352256.0353299
2,1, 7,21, 0,16,20.00,30.00,SummerDesignDay
8,17.67853788661001
10,568018498.2727206
852,151468197.2819773
2,1, 7,21, 0,16,30.00,40.00,SummerDesignDay
8,17.63791796367351
10,565520989.5952473
852,116253828.41983715
2,1, 7,21, 0,16,40.00,50.00,SummerDesignDay
8,17.59724609886134
10,563032752.2286598
852,172593135.38825924
2,1, 7,21, 0,16,50.00,60.00,SummerDesignDay
8,17.55650676726033
10,560397999.5103006
852,116309973.16808476
2,1, 7,21, 0,16, 0.00,60.00,SummerDesignDay
1086,23.999042219473905
1126,23.999160076345434
1166,23.997599339450674
1206,23.998266787167965
1246,23.998533699272483
1286,23.998429813700939
1326,23.999157848299836
1366,23.99738878041426
1406,23.995741834797938
1446,23.99844982945979
1486,23.99605097465722
1526,23.999484953486676
1566,23.996082091541124
1606,23.99828021740549
1646,23.999690960792724
1686,23.999218140361739
1726,23.997606868482916
1766,23.999955149027014
1806,23.996912706711809
1846,23.99654522683282
2,1, 7,21, 0,17, 0.00,10.00,SummerDesignDay
8,17.50209486331892
10,548799973.6153257
852,107533647.14848095
2,1, 7,21, 0,17,10.00,20.00,SummerDesignDay
8,17.447570789624618
10,544638535.1715533
852,127298963.99531071
2,1, 7,21, 0,17,20.00,30.00,SummerDesignDay
8,17.392929544208135
10,541302258.7403592
852,144265258.538515
2,1, 7,21, 0,17,30.00,40.00,SummerDesignDay
8,17.33818013976614
10,538087699.1825748
852,113930594.57653615
2,1, 7,21, 0,17,40.00,50.00,SummerDesignDay
8,17.283317298559309
10,534870877.0070189
852,106513412.14930456
2,1, 7,21, 0,17,50.00,60.00,SummerDesignDay
8,17.22833552437677
10,531644428.56244859
852,106435606.06301236
2,1, 7,21, 0,17, 0.00,60.00,SummerDesignDay
1086,23.99898116168477
1126,23.999193096034359
1166,23.99753655304234
1206,23.99814639041533
1246,23.99847791830054
1286,23.998374976425926
1326,23.99915160468191
1366,23.998243197539169
1406,23.995124056214519
1446,23.998324510556075
1486,23.99562217400185
1526,23.999486053821227
1566,23.996760040120504
1606,23.99819238574867
1646,23.99956986310175
1686,23.999300656823725
1726,23.9976900915451
1766,23.999891599887236
1806,23.997258697639805
1846,23.996560398352285
2,1, 7,21, 0,18, 0.00,10.00,SummerDesignDay
8,17.159453019160176
10,508600507.9671825
852,86117383.76540599
2,1, 7,21, 0,18,10.00,20.00,SummerDesignDay
8,17.090391773337136
10,503204762.90856489
852,83050691.2830846
2,1, 7,21, 0,18,20.00,30.00,SummerDesignDay
8,17.021151077964786
10,499056285.0595363
852,85179288.34109847
2,1, 7,21, 0,18,30.00,40.00,SummerDesignDay
8,16.951729380464653
10,495016948.0851651
852,91935079.00593268
2,1, 7,21, 0,18,40.00,50.00,SummerDesignDay
8,16.882126503829249
10,491059662.7165715
852,91944641.27312137
2,1, 7,21, 0,18,50.00,60.00,SummerDesignDay
8,16.812341807494034
10,487154178.6353651
852,91956320.75946449
2,1, 7,21, 0,18, 0.00,60.00,SummerDesignDay
1086,23.999032255139868
1126,23.999285309410828
1166,23.997715184396215
1206,23.99827522598261
1246,23.998513222100315
1286,23.998385793171093
1326,23.99930381584132
1366,23.999183926071994
1406,23.995503993174979
1446,23.998430614254944
1486,23.995992867239609
1526,23.999542526432568
1566,23.998024173125317
1606,23.998133138297438
1646,23.99953674407361
1686,23.999488430815359
1726,23.99814268191558
1766,23.999917773949475
1806,23.997682625471716
1846,23.99655294749968
2,1, 7,21, 0,19, 0.00,10.00,SummerDesignDay
8,16.707321072823203
10,452262157.9846899
852,88623174.1340612
2,1, 7,21, 0,19,10.00,20.00,SummerDesignDay
8,16.601881826644556
10,446327881.12140896
852,88277820.41054036
2,1, 7,21, 0,19,20.00,30.00,SummerDesignDay
8,16.496030555252849
10,441145641.51402947
852,88288988.04573101
2,1, 7,21, 0,19,30.00,40.00,SummerDesignDay
8,16.389760181474104
10,435992251.3610022
852,88300154.12821236
2,1, 7,21, 0,19,40.00,50.00,SummerDesignDay
8,16.283067654262039
10,431020418.6244131
852,88311330.96391298
2,1, 7,21, 0,19,50.00,60.00,SummerDesignDay
8,16.17595057957811
10,426143369.2351027
852,88322518.54633396
2,1, 7,21, 0,19, 0.00,60.00,SummerDesignDay
1086,23.999235940227825
1126,23.999533232736608
1166,23.998382005104788
1206,23.998800600856357
1246,23.998884758557457
1286,23.999324818271643
1326,23.99961419903533
1366,23.999561233296885
1406,23.996678002122406
1446,23.998911771545925
1486,23.99697519753813
1526,23.999643885353917
1566,23.99871501881552
1606,23.998093190658655
1646,23.998853810396598
1686,23.998509698338784
1726,23.998742032995656
1766,23.999945528960578
1806,23.998076860951554
1846,23.996547366642728
2,1, 7,21, 0,20, 0.00,10.00,SummerDesignDay
8,16.097123145563505
10,358914578.0684302
852,83827542.29461803
2,1, 7,21, 0,20,10.00,20.00,SummerDesignDay
8,16.018070242471564
10,354305065.61770728
852,73334580.8469989
2,1, 7,21, 0,20,20.00,30.00,SummerDesignDay
8,15.938779752340516
10,350409975.35747018
852,73174617.41572042
2,1, 7,21, 0,20,30.00,40.00,SummerDesignDay
8,15.85926152575189
10,346486774.1921283
852,73131324.98023424
2,1, 7,21, 0,20,40.00,50.00,SummerDesignDay
8,15.779503718563929
10,342521295.99278137
852,73086996.95113988
2,1, 7,21, 0,20,50.00,60.00,SummerDesignDay
8,15.699515709672767
10,338398472.0949522
852,73041930.72993282
2,1, 7,21, 0,20, 0.00,60.00,SummerDesignDay
1086,23.99934723524872
1126,23.999632699741313
1166,23.99915813896345
1206,23.999433543183387
1246,23.999480647980449
1286,24.60578575495276
1326,23.99967330010311
1366,23.99928252125046
1406,23.99819518029675
1446,23.999475534931098
1486,23.998275160864865
1526,23.999845904481963
1566,23.998573190966327
1606,23.998099066406629
1646,23.997038735255939
1686,23.361116711603385
1726,23.999342157274957
1766,23.99996623913125
1806,23.99834797458956
1846,23.996599282738847
2,1, 7,21, 0,21, 0.00,10.00,SummerDesignDay
8,15.63389147320404
10,316948082.64646926
852,72996107.88584599
2,1, 7,21, 0,21,10.00,20.00,SummerDesignDay
8,15.56810827419793
10,312942084.76644137
852,72949509.8404108
2,1, 7,21, 0,21,20.00,30.00,SummerDesignDay
8,15.502170882753524
10,309154573.3897746
852,72902117.39451958
2,1, 7,21, 0,21,30.00,40.00,SummerDesignDay
8,15.436068032613852
10,305308637.9750631
852,81754533.87681823
2,1, 7,21, 0,21,40.00,50.00,SummerDesignDay
8,15.369804371206009
10,301363337.7825814
852,83250678.8230627
2,1, 7,21, 0,21,50.00,60.00,SummerDesignDay
8,15.303384603594449
10,297829929.124769
852,83263937.09824051
2,1, 7,21, 0,21, 0.00,60.00,SummerDesignDay
1086,23.99947781543545
1126,23.734056978973759
1166,23.99943135861928
1206,24.000553461455409
1246,23.999666160505674
1286,24.44531709482745
1326,23.99975051896888
1366,23.999195131566663
1406,23.99891828527656
1446,24.002520077074406
1486,23.998787940468416
1526,23.999876634354448
1566,23.99869880166437
1606,23.99815935028178
1646,23.995996035383
1686,22.60997134197737
1726,23.999608373728205
1766,23.999983701410689
1806,23.99856268482887
1846,23.996712721776566
2,1, 7,21, 0,22, 0.00,10.00,SummerDesignDay
8,15.236797685071274
10,198486076.00692389
852,72921833.50067693
2,1, 7,21, 0,22,10.00,20.00,SummerDesignDay