Program Version,EnergyPlus, Version 8.9.0-eba93e8e1b, YMD=2019.04.04 17:58
1,5,Environment Title[],Latitude[deg],Longitude[deg],Time Zone[],Elevation[m]
2,8,Day of Simulation[],Month[],Day of Month[],DST Indicator[1=yes 0=no],Hour[],StartMinute[],EndMinute[],DayType
3,5,Cumulative Day of Simulation[],Month[],Day of Month[],DST Indicator[1=yes 0=no],DayType  ! When Daily Report Variables Requested
4,2,Cumulative Days of Simulation[],Month[]  ! When Monthly Report Variables Requested
5,1,Cumulative Days of Simulation[] ! When Run Period Report Variables Requested
6,1,Calendar Year of Simulation[] ! When Annual Report Variables Requested
7,9,Environment,Site Outdoor Air Drybulb Temperature [C] !Monthly [Value,Min,Day,Hour,Minute,Max,Day,Hour,Minute]
8,1,Environment,Site Outdoor Air Wetbulb Temperature [C] !TimeStep
555,1,ALL_ST=WHOLEBUILDING_FL=STORY 1_SCH=B,Zone Air Temperature [C] !Hourly
556,7,ALL_ST=WHOLEBUILDING_FL=STORY 1_SCH=B,Zone Air Relative Humidity [%] !Daily [Value,Min,Hour,Minute,Max,Hour,Minute]
595,1,ALL_ST=WHOLEBUILDING_FL=STORY 1_SCH=B 1,Zone Air Temperature [C] !Hourly
596,7,ALL_ST=WHOLEBUILDING_FL=STORY 1_SCH=B 1,Zone Air Relative Humidity [%] !Daily [Value,Min,Hour,Minute,Max,Hour,Minute]
635,1,ALL_ST=WHOLEBUILDING_FL=STORY 1_SCH=B 2,Zone Air Temperature [C] !Hourly
636,7,ALL_ST=WHOLEBUILDING_FL=STORY 1_SCH=B 2,Zone Air Relative Humidity [%] !Daily [Value,Min,Hour,Minute,Max,Hour,Minute]
675,1,ALL_ST=WHOLEBUILDING_FL=STORY 1_SCH=F,Zone Air Temperature [C] !Hourly
676,7,ALL_ST=WHOLEBUILDING_FL=STORY 1_SCH=F,Zone Air Relative Humidity [%] !Daily [Value,Min,Hour,Minute,Max,Hour,Minute]
715,1,DU_BT=DORMITORY_ST=WHOLEBUILDING_FL=STORY 1_SCHG,Zone Air Temperature [C] !Hourly
716,7,DU_BT=DORMITORY_ST=WHOLEBUILDING_FL=STORY 1_SCHG,Zone Air Relative Humidity [%] !Daily [Value,Min,Hour,Minute,Max,Hour,Minute]
10,1,Electricity:Facility [J] !TimeStep
321,1,Gas:Facility [J] !TimeStep
End of Data Dictionary
1,FORT MCMURRAY AP ANN CLG .4% CONDNS DB=>MWB,  56.65,-111.22,  -7.00, 369.10
2,1, 7,21, 0, 1, 0.00,10.00,SummerDesignDay
8,14.218136923962174
10,51062429.248626578
321,44339851.53534188
2,1, 7,21, 0, 1,10.00,20.00,SummerDesignDay
8,14.171982153293495
10,49486602.32421897
321,43821743.39652465
2,1, 7,21, 0, 1,20.00,30.00,SummerDesignDay
8,14.125744780286427
10,49070011.56042272
321,43833635.26512105
2,1, 7,21, 0, 1,30.00,40.00,SummerDesignDay
8,14.079436086331978
10,48632771.85953666
321,43844499.246933769
2,1, 7,21, 0, 1,40.00,50.00,SummerDesignDay
8,14.033050387896898
10,48209132.99529974
321,43855198.02957909
2,1, 7,21, 0, 1,50.00,60.00,SummerDesignDay
8,13.986581233564835
10,47779049.967121008
321,47042607.59639092
2,1, 7,21, 0, 1, 0.00,60.00,SummerDesignDay
555,23.99770090853723
595,23.998142656762
635,23.997955544119269
675,23.99805762048594
715,23.999252273395418
2,1, 7,21, 0, 2, 0.00,10.00,SummerDesignDay
8,13.95555882260429
10,25664085.64204674
321,38337883.978052947
2,1, 7,21, 0, 2,10.00,20.00,SummerDesignDay
8,13.924507755336454
10,25664085.64204674
321,41080071.88635973
2,1, 7,21, 0, 2,20.00,30.00,SummerDesignDay
8,13.893416042989206
10,25664085.64204674
321,41109854.87586398
2,1, 7,21, 0, 2,30.00,40.00,SummerDesignDay
8,13.862289589689029
10,25664085.64204674
321,20539044.279557747
2,1, 7,21, 0, 2,40.00,50.00,SummerDesignDay
8,13.831134407608739
10,25664085.64204674
321,41080708.18394437
2,1, 7,21, 0, 2,50.00,60.00,SummerDesignDay
8,13.799938415548118
10,25664085.64204674
321,41098636.82944171
2,1, 7,21, 0, 2, 0.00,60.00,SummerDesignDay
555,23.2987728987341
595,23.25731043038901
635,23.346373186840073
675,23.708919719002894
715,23.835926304636783
2,1, 7,21, 0, 3, 0.00,10.00,SummerDesignDay
8,13.776521671948676
10,9269222.08591339
321,12000.0
2,1, 7,21, 0, 3,10.00,20.00,SummerDesignDay
8,13.753085235778466
10,9269222.08591339
321,18081108.529402898
2,1, 7,21, 0, 3,20.00,30.00,SummerDesignDay
8,13.729636002354969
10,9269222.08591339
321,12000.0
2,1, 7,21, 0, 3,30.00,40.00,SummerDesignDay
8,13.706147375533054
10,9269222.08591339
321,18084914.53392481
2,1, 7,21, 0, 3,40.00,50.00,SummerDesignDay
8,13.682651961920304
10,9269222.08591339
321,12000.0
2,1, 7,21, 0, 3,50.00,60.00,SummerDesignDay
8,13.659136670643687
10,9269222.08591339
321,18010881.920316958
2,1, 7,21, 0, 3, 0.00,60.00,SummerDesignDay
555,21.604978650078164
595,21.54364556386228
635,21.63101100069998
675,23.14423083626916
715,23.438291975135944
2,1, 7,21, 0, 4, 0.00,10.00,SummerDesignDay
8,13.63560137410855
10,8132981.5421432419
321,12000.0
2,1, 7,21, 0, 4,10.00,20.00,SummerDesignDay
8,13.612040802606578
10,8132981.5421432419
321,17874014.451112
2,1, 7,21, 0, 4,20.00,30.00,SummerDesignDay
8,13.58846620506876
10,8132981.5421432419
321,12000.0
2,1, 7,21, 0, 4,30.00,40.00,SummerDesignDay
8,13.56487178447336
10,8132981.5421432419
321,12000.0
2,1, 7,21, 0, 4,40.00,50.00,SummerDesignDay
8,13.541257354069103
10,8132981.5421432419
321,17850608.840185618
2,1, 7,21, 0, 4,50.00,60.00,SummerDesignDay
8,13.517617463812285
10,8132981.5421432419
321,12000.0
2,1, 7,21, 0, 4, 0.00,60.00,SummerDesignDay
555,20.386587379568547
595,20.357834335094855
635,20.409470007653768
675,22.393472370885858
715,22.962191794711214
2,1, 7,21, 0, 5, 0.00,10.00,SummerDesignDay
8,13.50185415824011
10,8132981.5421432419
321,12000.0
2,1, 7,21, 0, 5,10.00,20.00,SummerDesignDay
8,13.486076034032447
10,8132981.5421432419
321,17815492.682023817
2,1, 7,21, 0, 5,20.00,30.00,SummerDesignDay
8,13.470289340350983
10,8132981.5421432419
321,12000.0
2,1, 7,21, 0, 5,30.00,40.00,SummerDesignDay
8,13.454493322631063
10,8132981.5421432419
321,12000.0
2,1, 7,21, 0, 5,40.00,50.00,SummerDesignDay
8,13.438688835118548
10,8132981.5421432419
321,17774471.072259264
2,1, 7,21, 0, 5,50.00,60.00,SummerDesignDay
8,13.422888173889437
10,8132981.5421432419
321,12000.0
2,1, 7,21, 0, 5, 0.00,60.00,SummerDesignDay
555,19.82280162740912
595,19.82625940171737
635,19.869027562750209
675,21.804939128117359
715,22.551162324069137
2,1, 7,21, 0, 6, 0.00,10.00,SummerDesignDay
8,13.438688835118548
10,8132981.5421432419
321,18024234.093048987
2,1, 7,21, 0, 6,10.00,20.00,SummerDesignDay
8,13.454493322631063
10,8132981.5421432419
321,12000.0
2,1, 7,21, 0, 6,20.00,30.00,SummerDesignDay
8,13.470289340350983
10,8132981.5421432419
321,18041042.531470486
2,1, 7,21, 0, 6,30.00,40.00,SummerDesignDay
8,13.486076034032447
10,8132981.5421432419
321,12000.0
2,1, 7,21, 0, 6,40.00,50.00,SummerDesignDay
8,13.50185415824011
10,8132981.5421432419
321,18041765.102434625
2,1, 7,21, 0, 6,50.00,60.00,SummerDesignDay
8,13.517617463812285
10,8132981.5421432419
321,12000.0
2,1, 7,21, 0, 6, 0.00,60.00,SummerDesignDay
555,19.55270717877139
595,19.57615202636156
635,19.61605362525286
675,21.57290080727076
715,22.28444871581146
2,1, 7,21, 0, 7, 0.00,10.00,SummerDesignDay
8,13.572736920571789
10,10754209.727060546
321,18717565.333001794
2,1, 7,21, 0, 7,10.00,20.00,SummerDesignDay
8,13.627748229152554
10,10754209.727060546
321,18806646.15924636
2,1, 7,21, 0, 7,20.00,30.00,SummerDesignDay
8,13.682651961920304
10,10754209.727060546
321,18807314.561940276
2,1, 7,21, 0, 7,30.00,40.00,SummerDesignDay
8,13.737448093244995
10,10754209.727060546
321,18807356.01746972
2,1, 7,21, 0, 7,40.00,50.00,SummerDesignDay
8,13.792137011831216
10,10754209.727060546
321,18807364.083808926
2,1, 7,21, 0, 7,50.00,60.00,SummerDesignDay
8,13.846719282840333
10,10754209.727060546
321,18807356.30286867
2,1, 7,21, 0, 7, 0.00,60.00,SummerDesignDay
555,19.61321628612673
595,19.645768940967849
635,19.68463361168112
675,21.880282106929969
715,22.49286452731954
2,1, 7,21, 0, 8, 0.00,10.00,SummerDesignDay
8,13.978831900527043
10,16941658.231840366
321,41451161.72868088
2,1, 7,21, 0, 8,10.00,20.00,SummerDesignDay
8,14.110321014287419
10,16941658.231840366
321,24715514.73271637
2,1, 7,21, 0, 8,20.00,30.00,SummerDesignDay
8,14.241191509616986
10,16966159.394720504
321,38148667.02889678
2,1, 7,21, 0, 8,30.00,40.00,SummerDesignDay
8,14.371447531304272
10,17324026.12124386
321,41902948.05871795
2,1, 7,21, 0, 8,40.00,50.00,SummerDesignDay
8,14.501093766564925
10,18800021.42691819
321,41908786.0061437
2,1, 7,21, 0, 8,50.00,60.00,SummerDesignDay
8,14.630134792273804
10,18290623.41063581
321,41911999.74114211
2,1, 7,21, 0, 8, 0.00,60.00,SummerDesignDay
555,20.137951148436444
595,20.170545683933669
635,20.208908863037839
675,22.755837767885013
715,23.588161854693536
2,1, 7,21, 0, 9, 0.00,10.00,SummerDesignDay
8,14.773641492809972
10,19366534.031734256
321,42954409.03788832
2,1, 7,21, 0, 9,10.00,20.00,SummerDesignDay
8,14.91640948124148
10,19416937.586512947
321,43072709.480804909
2,1, 7,21, 0, 9,20.00,30.00,SummerDesignDay
8,15.05843890714102
10,19513540.74527549
321,43073500.80859271
2,1, 7,21, 0, 9,30.00,40.00,SummerDesignDay
8,15.199735893563798
10,21148490.845848215
321,43074566.06047791
2,1, 7,21, 0, 9,40.00,50.00,SummerDesignDay
8,15.340306256439395
10,20668748.666634207
321,43075638.45416812
2,1, 7,21, 0, 9,50.00,60.00,SummerDesignDay
8,15.48015101768072
10,21074294.846612194
321,43076706.185410957
2,1, 7,21, 0, 9, 0.00,60.00,SummerDesignDay
555,21.269247209694723
595,21.291672461824264
635,21.32939833338111
675,23.855630582722389
715,23.99826824891733
2,1, 7,21, 0,10, 0.00,10.00,SummerDesignDay
8,15.60467292907716
10,30351009.722302878
321,68948512.21554369
2,1, 7,21, 0,10,10.00,20.00,SummerDesignDay
8,15.72862731650033
10,29967515.721384936
321,56142539.53493176
2,1, 7,21, 0,10,20.00,30.00,SummerDesignDay
8,15.852017409284228
10,30244175.051090667
321,74723845.79006838
2,1, 7,21, 0,10,30.00,40.00,SummerDesignDay
8,15.974848118364367
10,30499830.85573158
321,74752433.76465291
2,1, 7,21, 0,10,40.00,50.00,SummerDesignDay
8,16.097123145563505
10,31517715.85073578
321,52391943.88057542
2,1, 7,21, 0,10,50.00,60.00,SummerDesignDay
8,16.218846351168599
10,39931100.32349433
321,72145816.16007394
2,1, 7,21, 0,10, 0.00,60.00,SummerDesignDay
555,23.187359884819747
595,23.173557215686658
635,23.228863117805699
675,23.999032300442594
715,23.999741662493848
2,1, 7,21, 0,11, 0.00,10.00,SummerDesignDay
8,16.325793027093189
10,48130979.675276029
321,69618310.27626054
2,1, 7,21, 0,11,10.00,20.00,SummerDesignDay
8,16.432322158488288
10,48895756.95806646
321,49285686.160378199
2,1, 7,21, 0,11,20.00,30.00,SummerDesignDay
8,16.538424180249178
10,50132927.835175458
321,71165481.85927169
2,1, 7,21, 0,11,30.00,40.00,SummerDesignDay
8,16.644108396469087
10,50952656.67499022
321,47405203.561454627
2,1, 7,21, 0,11,40.00,50.00,SummerDesignDay
8,16.749376736593655
10,51723923.59824513
321,71163625.35812196
2,1, 7,21, 0,11,50.00,60.00,SummerDesignDay
8,16.854232613237156
10,52431416.50846039
321,47409623.988308358
2,1, 7,21, 0,11, 0.00,60.00,SummerDesignDay
555,23.999036092465649
595,23.999193845213357
635,23.999146340014723
675,23.998570885666813
715,23.99948209527055
2,1, 7,21, 0,12, 0.00,10.00,SummerDesignDay
8,16.92390823520069
10,63281246.95129961
321,42426774.97867301
2,1, 7,21, 0,12,10.00,20.00,SummerDesignDay
8,16.99340178950456
10,63291930.23340893
321,41934097.04793699
2,1, 7,21, 0,12,20.00,30.00,SummerDesignDay
8,17.06272006743463
10,63741856.88374804
321,41935971.90731474
2,1, 7,21, 0,12,30.00,40.00,SummerDesignDay
8,17.131853229172639
10,64197821.20812884
321,41938999.90008026
2,1, 7,21, 0,12,40.00,50.00,SummerDesignDay
8,17.200807172194087
10,64630502.903026569
321,34666602.134143669
2,1, 7,21, 0,12,50.00,60.00,SummerDesignDay
8,17.269582116758607
10,65036715.816502619
321,28235515.28737711
2,1, 7,21, 0,12, 0.00,60.00,SummerDesignDay
555,23.99829793871797
595,23.99859826482633
635,23.99847293900846
675,23.99893298827122
715,23.999568219614845
2,1, 7,21, 0,13, 0.00,10.00,SummerDesignDay
8,17.32447360221357
10,66441336.976958248
321,42515446.55882059
2,1, 7,21, 0,13,10.00,20.00,SummerDesignDay
8,17.379251291230806
10,66893683.42733157
321,42580317.26508241
2,1, 7,21, 0,13,20.00,30.00,SummerDesignDay
8,17.433921312061729
10,67205651.7424247
321,42579556.968699079
2,1, 7,21, 0,13,30.00,40.00,SummerDesignDay
8,17.488473222557489
10,67614285.07236228
321,42578521.34167188
2,1, 7,21, 0,13,40.00,50.00,SummerDesignDay
8,17.542913447755134
10,68018264.46165069
321,42577457.18626089
2,1, 7,21, 0,13,50.00,60.00,SummerDesignDay
8,17.59724609886134
10,68417426.18147482
321,42576379.21960618
2,1, 7,21, 0,13, 0.00,60.00,SummerDesignDay
555,23.99751683665337
595,23.997843902228224
635,23.997703703508749
675,23.99922298070125
715,23.99960882069688
2,1, 7,21, 0,14, 0.00,10.00,SummerDesignDay
8,17.6311450462694
10,68097761.41809482
321,44318840.51804005
2,1, 7,21, 0,14,10.00,20.00,SummerDesignDay
8,17.665000449016245
10,68556241.37534347
321,48608612.548626068
2,1, 7,21, 0,14,20.00,30.00,SummerDesignDay
8,17.698812743128934
10,68793389.55524536
321,62709655.04165742
2,1, 7,21, 0,14,30.00,40.00,SummerDesignDay
8,17.732582050940107
10,69037613.31734619
321,44480682.95415396
2,1, 7,21, 0,14,40.00,50.00,SummerDesignDay
8,17.766307345121004
10,69278106.2384362
321,44500121.54167236
2,1, 7,21, 0,14,50.00,60.00,SummerDesignDay
8,17.79999023167558
10,69513952.65240143
321,44523940.59005926
2,1, 7,21, 0,14, 0.00,60.00,SummerDesignDay
555,23.996943053965294
595,23.997308306090188
635,23.997121477059314
675,23.999221475442487
715,23.999639114466093
2,1, 7,21, 0,15, 0.00,10.00,SummerDesignDay
8,17.79999023167558
10,67737299.6987381
321,53809920.268332239
2,1, 7,21, 0,15,10.00,20.00,SummerDesignDay
8,17.79999023167558
10,67663969.25292348
321,57557852.369104858
2,1, 7,21, 0,15,20.00,30.00,SummerDesignDay
8,17.79999023167558
10,67664330.04129528
321,44512088.315856
2,1, 7,21, 0,15,30.00,40.00,SummerDesignDay
8,17.79999023167558
10,67655011.40145993
321,44534149.39931704
2,1, 7,21, 0,15,40.00,50.00,SummerDesignDay
8,17.79999023167558
10,67643144.58062564
321,44558616.717858377
2,1, 7,21, 0,15,50.00,60.00,SummerDesignDay
8,17.79999023167558
10,67632527.29663703
321,60289834.93075169
2,1, 7,21, 0,15, 0.00,60.00,SummerDesignDay
555,23.997336940667894
595,23.99769280140416
635,23.997500590641054
675,23.999267488265319
715,23.999609267353369
2,1, 7,21, 0,16, 0.00,10.00,SummerDesignDay
8,17.759562446305357
10,65507569.52341594
321,40478645.08324754
2,1, 7,21, 0,16,10.00,20.00,SummerDesignDay
8,17.71907809634183
10,64920147.95896478
321,37080069.75039557
2,1, 7,21, 0,16,20.00,30.00,SummerDesignDay
8,17.67853788661001
10,64630839.94583957
321,36965686.59783806
2,1, 7,21, 0,16,30.00,40.00,SummerDesignDay
8,17.63791796367351
10,64336818.14587587
321,41019612.86930055
2,1, 7,21, 0,16,40.00,50.00,SummerDesignDay
8,17.59724609886134
10,64042814.68013546
321,42607388.31311226
2,1, 7,21, 0,16,50.00,60.00,SummerDesignDay
8,17.55650676726033
10,63750276.7917625
321,42606277.34712658
2,1, 7,21, 0,16, 0.00,60.00,SummerDesignDay
555,23.99826018520227
595,23.99852392846587
635,23.998366794800608
675,23.99940653328125
715,23.999450492595824
2,1, 7,21, 0,17, 0.00,10.00,SummerDesignDay
8,17.50209486331892
10,63781356.74463624
321,41496834.759151797
2,1, 7,21, 0,17,10.00,20.00,SummerDesignDay
8,17.447570789624618
10,63246118.84325893
321,41386319.02504395
2,1, 7,21, 0,17,20.00,30.00,SummerDesignDay
8,17.392929544208135
10,62917641.22409432
321,38664765.74312938
2,1, 7,21, 0,17,30.00,40.00,SummerDesignDay
8,17.33818013976614
10,62628903.26989485
321,23418723.504944616
2,1, 7,21, 0,17,40.00,50.00,SummerDesignDay
8,17.283317298559309
10,62351902.61418609
321,41374086.863801959
2,1, 7,21, 0,17,50.00,60.00,SummerDesignDay
8,17.22833552437677
10,62068401.036420989
321,41384379.88813374
2,1, 7,21, 0,17, 0.00,60.00,SummerDesignDay
555,23.99883102926071
595,23.999016812533517
635,23.998903133645404
675,23.99945048522075
715,23.999264598084936
2,1, 7,21, 0,18, 0.00,10.00,SummerDesignDay
8,17.159453019160176
10,61609579.79457644
321,42472253.927232678
2,1, 7,21, 0,18,10.00,20.00,SummerDesignDay
8,17.090391773337136
10,61490262.28798734
321,42594250.13606965
2,1, 7,21, 0,18,20.00,30.00,SummerDesignDay
8,17.021151077964786
10,61131270.94271466
321,42592835.46415353
2,1, 7,21, 0,18,30.00,40.00,SummerDesignDay
8,16.951729380464653
10,60785695.40243532
321,42591651.87200056
2,1, 7,21, 0,18,40.00,50.00,SummerDesignDay
8,16.882126503829249
10,60439130.169324118
321,39853728.511087547
2,1, 7,21, 0,18,50.00,60.00,SummerDesignDay
8,16.812341807494034
10,60087885.39018357
321,37207715.91862537
2,1, 7,21, 0,18, 0.00,60.00,SummerDesignDay
555,23.998884986200438
595,23.999043341019314
635,23.998936135232979
675,23.999346751910456
715,23.99906249136681
2,1, 7,21, 0,19, 0.00,10.00,SummerDesignDay
8,16.707321072823203
10,64303971.234998468
321,52087232.75077929
2,1, 7,21, 0,19,10.00,20.00,SummerDesignDay
8,16.601881826644556
10,64049779.25393607
321,43862676.510031629
2,1, 7,21, 0,19,20.00,30.00,SummerDesignDay
8,16.496030555252849
10,63557206.375513259
321,43872917.88642171
2,1, 7,21, 0,19,30.00,40.00,SummerDesignDay
8,16.389760181474104
10,63059272.57638472
321,43884643.49558331
2,1, 7,21, 0,19,40.00,50.00,SummerDesignDay
8,16.283067654262039
10,62543610.00365715
321,43896350.91979588
2,1, 7,21, 0,19,50.00,60.00,SummerDesignDay
8,16.17595057957811
10,62010635.62268591
321,43907963.35476187
2,1, 7,21, 0,19, 0.00,60.00,SummerDesignDay
555,23.998295996003156
595,23.99849434680858
635,23.998354757870545
675,23.999308260014386
715,23.997911279693527
2,1, 7,21, 0,20, 0.00,10.00,SummerDesignDay
8,16.097123145563505
10,77020533.88521521
321,55226706.122366409
2,1, 7,21, 0,20,10.00,20.00,SummerDesignDay
8,16.018070242471564
10,77379075.33349416
321,55993222.10266121
2,1, 7,21, 0,20,20.00,30.00,SummerDesignDay
8,15.938779752340516
10,77071865.15452297
321,44485722.941802117
2,1, 7,21, 0,20,30.00,40.00,SummerDesignDay
8,15.85926152575189
10,76758688.61166601
321,44507676.534721549
2,1, 7,21, 0,20,40.00,50.00,SummerDesignDay
8,15.779503718563929
10,76416804.2892633
321,44531558.514437448
2,1, 7,21, 0,20,50.00,60.00,SummerDesignDay
8,15.699515709672767
10,76058061.50778346
321,60138769.319605138
2,1, 7,21, 0,20, 0.00,60.00,SummerDesignDay
555,23.997132294478957
595,23.99742731882533
635,23.997228857247039
675,23.998383479711348
715,24.06201352435926
2,1, 7,21, 0,21, 0.00,10.00,SummerDesignDay
8,15.63389147320404
10,78214371.11637092
321,57471063.03959323
2,1, 7,21, 0,21,10.00,20.00,SummerDesignDay
8,15.56810827419793
10,78809052.6548327
321,76037843.02988793
2,1, 7,21, 0,21,20.00,30.00,SummerDesignDay
8,15.502170882753524
10,78495523.45796702
321,76035840.84246275
2,1, 7,21, 0,21,30.00,40.00,SummerDesignDay
8,15.436068032613852
10,78183165.77534934
321,66842280.427813958
2,1, 7,21, 0,21,40.00,50.00,SummerDesignDay
8,15.369804371206009
10,77863697.35068055
321,59867003.80568939
2,1, 7,21, 0,21,50.00,60.00,SummerDesignDay
8,15.303384603594449
10,77541073.6382322
321,76038600.12479025
2,1, 7,21, 0,21, 0.00,60.00,SummerDesignDay
555,23.996207894973979
595,23.996648101818818
635,23.996407221463575
675,23.997021434976053
715,24.080552580449166
2,1, 7,21, 0,22, 0.00,10.00,SummerDesignDay
8,15.236797685071274
10,78111806.47712642
321,73718563.01992017
2,1, 7,21, 0,22,10.00,20.00,SummerDesignDay
8,15.170047891787942
10,77689189.8801025
321,49005396.63678363
2,1, 7,21, 0,22,20.00,30.00,SummerDesignDay
8,15.103134826860483
10,77047641.9928371
321,73422689.85344444
2,1, 7,21, 0,22,30.00,40.00,SummerDesignDay
8,15.036063385178485
10,76838180.33984855
321,72242346.54146198
2,1, 7,21, 0,22,40.00,50.00,SummerDesignDay
8,14.968821767219835
10,76428047.36072707
321,50182262.93749659
2,1, 7,21, 0,22,50.00,60.00,SummerDesignDay
8,14.90141525878635
10,76056184.73974987
321,73462785.1228658
2,1, 7,21, 0,22, 0.00,60.00,SummerDesignDay
555,23.995562550056304
595,23.99614383687216
635,23.995873446018789
675,24.00298443043123
715,24.00524601905198
2,1, 7,21, 0,23, 0.00,10.00,SummerDesignDay
8,14.848873673278373
10,71173490.86908515
321,75770393.75511427
2,1, 7,21, 0,23,10.00,20.00,SummerDesignDay
8,14.796237168136719
10,70736538.80446212
321,57309337.84852323
2,1, 7,21, 0,23,20.00,30.00,SummerDesignDay
8,14.743494321455645
10,70474035.04887095
321,69393794.92082185
2,1, 7,21, 0,23,30.00,40.00,SummerDesignDay
8,14.690649975253665
10,70117810.46509859
321,76035873.5757686
2,1, 7,21, 0,23,40.00,50.00,SummerDesignDay
8,14.637704281233117
10,69762317.55885864
321,76036467.49468504
2,1, 7,21, 0,23,50.00,60.00,SummerDesignDay
8,14.584656914839757
10,69404645.66155187
321,59699631.40293667
2,1, 7,21, 0,23, 0.00,60.00,SummerDesignDay
555,23.996240686244478
595,23.996820130501019
635,23.996565999367566
675,23.996072743691774
715,23.9976734321798
2,1, 7,21, 0,24, 0.00,10.00,SummerDesignDay
8,14.531507212058875
10,62618824.59214504
321,65958860.08035528
2,1, 7,21, 0,24,10.00,20.00,SummerDesignDay
8,14.47825496413355
10,61955465.17115137
321,74726800.95552461
2,1, 7,21, 0,24,20.00,30.00,SummerDesignDay
8,14.4249000133173
10,61562297.08802761
321,67433713.38662476
2,1, 7,21, 0,24,30.00,40.00,SummerDesignDay
8,14.371447531304272
10,61134473.73154746
321,57097268.19254974
2,1, 7,21, 0,24,40.00,50.00,SummerDesignDay
8,14.31788619902223
10,60733120.067261148
321,74727138.52162747
2,1, 7,21, 0,24,50.00,60.00,SummerDesignDay
8,14.264220970176066
10,60322216.78441568
321,74731739.08836054
2,1, 7,21, 0,24, 0.00,60.00,SummerDesignDay
555,23.99694507038477
595,23.997499769279519
635,23.99727514699853
675,23.99651671410233
715,23.998445133793856
3,1, 7,21, 0,SummerDesignDay
556,54.91381860422768,48.769223520445027,10,50,60.16541199861598, 6,60
596,54.084149628326397,48.15256989408312,10,50,59.90985216773854, 6,60
636,53.86978943776466,48.05109808062724,10,50,59.760358146351148, 6,60
676,59.187544639747837,54.30489549959609,20,10,62.44632576960964, 7,60
716,62.03639595364262,55.971412995921799, 1,60,68.41537562867456,19,60
4,1, 7
7,22.2505,16.5,21, 5,60,28.9,21,14,60
1,FORT MCMURRAY AP ANN HTG 99.6% CONDNS DB,  56.65,-111.22,  -7.00, 369.10
2,1, 1,21, 0, 1, 0.00,10.00,WinterDesignDay
8,-36.2
10,45718378.97922391
321,487265894.9444562
2,1, 1,21, 0, 1,10.00,20.00,WinterDesignDay
8,-36.2
10,45718378.97922391
321,501048071.28756037
2,1, 1,21, 0, 1,20.00,30.00,WinterDesignDay
8,-36.2
10,45718378.97922391
321,508897740.5256427
2,1, 1,21, 0, 1,30.00,40.00,WinterDesignDay
8,-36.2
10,45718378.97922391
321,493351377.4589705
2,1, 1,21, 0, 1,40.00,50.00,WinterDesignDay
8,-36.2
10,45718378.97922391
321,511625870.38307866
2,1, 1,21, 0, 1,50.00,60.00,WinterDesignDay
8,-36.2
10,45718378.97922391
321,498685697.8457184
2,1, 1,21, 0, 1, 0.00,60.00,WinterDesignDay
555,22.000000475025144
595,22.000000384844438
635,22.000000022149409
675,21.99882995380842
715,21.999043866760247
2,1, 1,21, 0, 2, 0.00,10.00,WinterDesignDay
8,-36.2
10,25678545.758346518
321,502257916.46743717
2,1, 1,21, 0, 2,10.00,20.00,WinterDesignDay
8,-36.2
10,25671342.045327758
321,504271518.3075711
2,1, 1,21, 0, 2,20.00,30.00,WinterDesignDay
8,-36.2
10,25671339.720674576
321,504874721.6097076
2,1, 1,21, 0, 2,30.00,40.00,WinterDesignDay
8,-36.2
10,25671337.766400987
321,505502973.3030086
2,1, 1,21, 0, 2,40.00,50.00,WinterDesignDay
8,-36.2
10,25678545.758346518
321,506024076.14089277
2,1, 1,21, 0, 2,50.00,60.00,WinterDesignDay
8,-36.2
10,25664125.114998148
321,505091905.81439819
2,1, 1,21, 0, 2, 0.00,60.00,WinterDesignDay
555,22.000004835982606
595,22.000004003543809
635,22.000003801320088
675,21.143731500297155
715,20.93965481314906
2,1, 1,21, 0, 3, 0.00,10.00,WinterDesignDay
8,-36.2
10,9269222.08591339
321,422427748.4708767
2,1, 1,21, 0, 3,10.00,20.00,WinterDesignDay
8,-36.2
10,9269222.08591339
321,439528229.3685692
2,1, 1,21, 0, 3,20.00,30.00,WinterDesignDay
8,-36.2
10,9269222.08591339
321,421340688.00183466
2,1, 1,21, 0, 3,30.00,40.00,WinterDesignDay
8,-36.2
10,9269222.08591339
321,439576767.8163601
2,1, 1,21, 0, 3,40.00,50.00,WinterDesignDay
8,-36.2
10,9269222.08591339
321,439656027.796803
2,1, 1,21, 0, 3,50.00,60.00,WinterDesignDay
8,-36.2
10,9269222.08591339
321,421481586.06785866
2,1, 1,21, 0, 3, 0.00,60.00,WinterDesignDay
555,19.735331690104464
595,19.7088659911889
635,19.732248850350179
675,20.286363303849059
715,19.91084062976225
2,1, 1,21, 0, 4, 0.00,10.00,WinterDesignDay
8,-36.2
10,8132981.5421432419
321,439466365.91606399
2,1, 1,21, 0, 4,10.00,20.00,WinterDesignDay
8,-36.2
10,8147441.65844302
321,433799384.3308229
2,1, 1,21, 0, 4,20.00,30.00,WinterDesignDay
8,-36.2
10,8132992.254269015
321,443443477.9986495
2,1, 1,21, 0, 4,30.00,40.00,WinterDesignDay
8,-36.2
10,8132993.810371345
321,456919017.3677739
2,1, 1,21, 0, 4,40.00,50.00,WinterDesignDay
8,-36.2
10,8132990.433440845
321,441485490.4179492
2,1, 1,21, 0, 4,50.00,60.00,WinterDesignDay
8,-36.2
10,8132988.76650749
321,460209966.9680096
2,1, 1,21, 0, 4, 0.00,60.00,WinterDesignDay
555,18.04180247883601
595,18.03422799441454
635,18.040276592893048
675,19.495183134749305
715,19.26540372056179
2,1, 1,21, 0, 5, 0.00,10.00,WinterDesignDay
8,-36.2
10,8132987.551731568
321,442872201.55096516
2,1, 1,21, 0, 5,10.00,20.00,WinterDesignDay
8,-36.2
10,8132986.561663294
321,461267731.76236519
2,1, 1,21, 0, 5,20.00,30.00,WinterDesignDay
8,-36.2
10,8132985.821137827
321,443709332.5858244
2,1, 1,21, 0, 5,30.00,40.00,WinterDesignDay
8,-36.2
10,8132985.285674905
321,444008262.5382253
2,1, 1,21, 0, 5,40.00,50.00,WinterDesignDay
8,-36.2
10,8132984.831450126
321,462139675.9288326
2,1, 1,21, 0, 5,50.00,60.00,WinterDesignDay
8,-36.2
10,8132984.545313906
321,444482833.186768
2,1, 1,21, 0, 5, 0.00,60.00,WinterDesignDay
555,17.999999738423435
595,17.99999981659202
635,18.000002154840148
675,18.883853417192648
715,18.79035163371162
2,1, 1,21, 0, 6, 0.00,10.00,WinterDesignDay
8,-36.2
10,8132984.091281436
321,462776949.308265
2,1, 1,21, 0, 6,10.00,20.00,WinterDesignDay
8,-36.2
10,8132983.948203943
321,444820155.5205247
2,1, 1,21, 0, 6,20.00,30.00,WinterDesignDay
8,-36.2
10,8132983.721181381
321,463057316.32240399
2,1, 1,21, 0, 6,30.00,40.00,WinterDesignDay
8,-36.2
10,8132982.433824095
321,463226999.1190314
2,1, 1,21, 0, 6,40.00,50.00,WinterDesignDay
8,-36.2
10,8132982.352744774
321,445149239.2893322
2,1, 1,21, 0, 6,50.00,60.00,WinterDesignDay
8,-36.2
10,8132982.352728189
321,463362866.63085576
2,1, 1,21, 0, 6, 0.00,60.00,WinterDesignDay
555,17.99999980745431
595,17.999985212985139
635,17.99998483614085
675,18.69662692541181
715,18.578226418154466
2,1, 1,21, 0, 7, 0.00,10.00,WinterDesignDay
8,-36.2
10,10754210.537628917
321,464270359.5212167
2,1, 1,21, 0, 7,10.00,20.00,WinterDesignDay
8,-36.2
10,10754210.456557917
321,464367726.4525753
2,1, 1,21, 0, 7,20.00,30.00,WinterDesignDay
8,-36.2
10,10754210.456544504
321,464341579.53677
2,1, 1,21, 0, 7,30.00,40.00,WinterDesignDay
8,-36.2
10,10754210.375479479
321,464299847.6801224
2,1, 1,21, 0, 7,40.00,50.00,WinterDesignDay
8,-36.2
10,10754210.375468893
321,464251648.4368254
2,1, 1,21, 0, 7,50.00,60.00,WinterDesignDay
8,-36.2
10,10754210.375458312
321,464203239.84222427
2,1, 1,21, 0, 7, 0.00,60.00,WinterDesignDay
555,17.99999942572882
595,17.99997510875443
635,17.99997404773408
675,18.915284360212579
715,18.76822409465552
2,1, 1,21, 0, 8, 0.00,10.00,WinterDesignDay
8,-36.2
10,16941658.880227556
321,514444824.6575321
2,1, 1,21, 0, 8,10.00,20.00,WinterDesignDay
8,-36.2
10,16941658.880216984
321,495641434.24720337
2,1, 1,21, 0, 8,20.00,30.00,WinterDesignDay
8,-36.2
10,16941658.880206419
321,489129481.2530887
2,1, 1,21, 0, 8,30.00,40.00,WinterDesignDay
8,-36.2
10,16941658.880195857
321,497709808.83894327
2,1, 1,21, 0, 8,40.00,50.00,WinterDesignDay
8,-36.2
10,16941658.8801853
321,495754882.6863976
2,1, 1,21, 0, 8,50.00,60.00,WinterDesignDay
8,-36.2
10,16941658.961215807
321,490726469.6825913
2,1, 1,21, 0, 8, 0.00,60.00,WinterDesignDay
555,17.999998924616837
595,17.99998170450301
635,17.999980965600359
675,20.00777900554211
715,20.28948194282344
2,1, 1,21, 0, 9, 0.00,10.00,WinterDesignDay
8,-36.2
10,18084096.060353847
321,631618713.2776497
2,1, 1,21, 0, 9,10.00,20.00,WinterDesignDay
8,-36.2
10,18082718.814377104
321,554001117.7595731
2,1, 1,21, 0, 9,20.00,30.00,WinterDesignDay
8,-36.2
10,18077898.77561051
321,519987396.8577168
2,1, 1,21, 0, 9,30.00,40.00,WinterDesignDay
8,-36.2
10,18077898.77561051
321,548225288.9059119
2,1, 1,21, 0, 9,40.00,50.00,WinterDesignDay
8,-36.2
10,18077898.77561051
321,518956725.83666566
2,1, 1,21, 0, 9,50.00,60.00,WinterDesignDay
8,-36.2
10,18077898.77561051
321,518833778.7159203
2,1, 1,21, 0, 9, 0.00,60.00,WinterDesignDay
555,19.94331936582604
595,19.94306992721459
635,19.942854794957186
675,21.883311941286924
715,21.948408318818868
2,1, 1,21, 0,10, 0.00,10.00,WinterDesignDay
8,-36.2
10,28507325.132813656
321,631039005.0219468
2,1, 1,21, 0,10,10.00,20.00,WinterDesignDay
8,-36.2
10,28499062.048093305
321,582526721.9876285
2,1, 1,21, 0,10,20.00,30.00,WinterDesignDay
8,-36.2
10,28499071.17172116
321,556039185.2927766
2,1, 1,21, 0,10,30.00,40.00,WinterDesignDay
8,-36.2
10,28499067.42946127
321,567814888.745854
2,1, 1,21, 0,10,40.00,50.00,WinterDesignDay
8,-36.2
10,28513522.164393084
321,559418643.6224836
2,1, 1,21, 0,10,50.00,60.00,WinterDesignDay
8,-36.2
10,28499081.35586806
321,558645308.0665972
2,1, 1,21, 0,10, 0.00,60.00,WinterDesignDay
555,21.94649716916616
595,21.94662771718239
635,21.94826478629713
675,21.998703621630296
715,21.99975991286075
2,1, 1,21, 0,11, 0.00,10.00,WinterDesignDay
8,-36.2
10,36710953.94245978
321,532204167.21759799
2,1, 1,21, 0,11,10.00,20.00,WinterDesignDay
8,-36.2
10,36710953.94245978
321,532247556.3348965
2,1, 1,21, 0,11,20.00,30.00,WinterDesignDay
8,-36.2
10,36710953.94245978
321,543651522.6262772
2,1, 1,21, 0,11,30.00,40.00,WinterDesignDay
8,-36.2
10,36710953.94245978
321,542989366.5087185
2,1, 1,21, 0,11,40.00,50.00,WinterDesignDay
8,-36.2
10,36710953.94245978
321,531436550.7849758
2,1, 1,21, 0,11,50.00,60.00,WinterDesignDay
8,-36.2
10,36710953.94245978
321,527747497.24929639
2,1, 1,21, 0,11, 0.00,60.00,WinterDesignDay
555,22.00000002962678
595,22.000001601699805
635,21.99999989818833
675,21.998537789753518
715,21.999608304238408
2,1, 1,21, 0,12, 0.00,10.00,WinterDesignDay
8,-36.2
10,43772145.17675629
321,503997357.29014846
2,1, 1,21, 0,12,10.00,20.00,WinterDesignDay
8,-36.2
10,43772145.17675629
321,504139413.7328003
2,1, 1,21, 0,12,20.00,30.00,WinterDesignDay
8,-36.2