Program Version,EnergyPlus, Version 8.9.0-eba93e8e1b, YMD=2019.03.11 19:37
1,5,Environment Title[],Latitude[deg],Longitude[deg],Time Zone[],Elevation[m]
2,8,Day of Simulation[],Month[],Day of Month[],DST Indicator[1=yes 0=no],Hour[],StartMinute[],EndMinute[],DayType
3,5,Cumulative Day of Simulation[],Month[],Day of Month[],DST Indicator[1=yes 0=no],DayType  ! When Daily Report Variables Requested
4,2,Cumulative Days of Simulation[],Month[]  ! When Monthly Report Variables Requested
5,1,Cumulative Days of Simulation[] ! When Run Period Report Variables Requested
6,1,Calendar Year of Simulation[] ! When Annual Report Variables Requested
7,9,Environment,Site Outdoor Air Drybulb Temperature [C] !Monthly [Value,Min,Day,Hour,Minute,Max,Day,Hour,Minute]
8,1,Environment,Site Outdoor Air Wetbulb Temperature [C] !TimeStep
1531,1,PENITENTIARY - DINING-SPACE FUNCTION ZN,Zone Air Temperature [C] !Hourly
1532,7,PENITENTIARY - DINING-SPACE FUNCTION ZN,Zone Air Relative Humidity [%] !Daily [Value,Min,Hour,Minute,Max,Hour,Minute]
1571,1,POST OFFICE SORTING-SPACE FUNCTION ZN,Zone Air Temperature [C] !Hourly
1572,7,POST OFFICE SORTING-SPACE FUNCTION ZN,Zone Air Relative Humidity [%] !Daily [Value,Min,Hour,Minute,Max,Hour,Minute]
1611,1,RELIGIOUS - AUDIENCE-SPACE FUNCTION ZN,Zone Air Temperature [C] !Hourly
1612,7,RELIGIOUS - AUDIENCE-SPACE FUNCTION ZN,Zone Air Relative Humidity [%] !Daily [Value,Min,Hour,Minute,Max,Hour,Minute]
1651,1,RELIGIOUS - FELLOWSHIP HALL-SPACE FUNCTION ZN,Zone Air Temperature [C] !Hourly
1652,7,RELIGIOUS - FELLOWSHIP HALL-SPACE FUNCTION ZN,Zone Air Relative Humidity [%] !Daily [Value,Min,Hour,Minute,Max,Hour,Minute]
1691,1,RELIGIOUS - PULPIT/CHOIR-SPACE FUNCTION ZN,Zone Air Temperature [C] !Hourly
1692,7,RELIGIOUS - PULPIT/CHOIR-SPACE FUNCTION ZN,Zone Air Relative Humidity [%] !Daily [Value,Min,Hour,Minute,Max,Hour,Minute]
1731,1,RETAIL - DRESSING/FITTING-SPACE FUNCTION ZN,Zone Air Temperature [C] !Hourly
1732,7,RETAIL - DRESSING/FITTING-SPACE FUNCTION ZN,Zone Air Relative Humidity [%] !Daily [Value,Min,Hour,Minute,Max,Hour,Minute]
1771,1,RETAIL - MALL CONCOURSE-SPACE FUNCTION ZN,Zone Air Temperature [C] !Hourly
1772,7,RETAIL - MALL CONCOURSE-SPACE FUNCTION ZN,Zone Air Relative Humidity [%] !Daily [Value,Min,Hour,Minute,Max,Hour,Minute]
1811,1,RETAIL - SALES-SPACE FUNCTION ZN,Zone Air Temperature [C] !Hourly
1812,7,RETAIL - SALES-SPACE FUNCTION ZN,Zone Air Relative Humidity [%] !Daily [Value,Min,Hour,Minute,Max,Hour,Minute]
1851,1,SALES AREA-SPACE FUNCTION ZN,Zone Air Temperature [C] !Hourly
1852,7,SALES AREA-SPACE FUNCTION ZN,Zone Air Relative Humidity [%] !Daily [Value,Min,Hour,Minute,Max,Hour,Minute]
1891,1,SPORTS ARENA - AUDIENCE-SPACE FUNCTION ZN,Zone Air Temperature [C] !Hourly
1892,7,SPORTS ARENA - AUDIENCE-SPACE FUNCTION ZN,Zone Air Relative Humidity [%] !Daily [Value,Min,Hour,Minute,Max,Hour,Minute]
1931,1,SPORTS ARENA - COURT C1-SPACE FUNCTION ZN,Zone Air Temperature [C] !Hourly
1932,7,SPORTS ARENA - COURT C1-SPACE FUNCTION ZN,Zone Air Relative Humidity [%] !Daily [Value,Min,Hour,Minute,Max,Hour,Minute]
1971,1,SPORTS ARENA - COURT C2-SPACE FUNCTION ZN,Zone Air Temperature [C] !Hourly
1972,7,SPORTS ARENA - COURT C2-SPACE FUNCTION ZN,Zone Air Relative Humidity [%] !Daily [Value,Min,Hour,Minute,Max,Hour,Minute]
2011,1,SPORTS ARENA - COURT C3-SPACE FUNCTION ZN,Zone Air Temperature [C] !Hourly
2012,7,SPORTS ARENA - COURT C3-SPACE FUNCTION ZN,Zone Air Relative Humidity [%] !Daily [Value,Min,Hour,Minute,Max,Hour,Minute]
2051,1,SPORTS ARENA - COURT C4-SPACE FUNCTION ZN,Zone Air Temperature [C] !Hourly
2052,7,SPORTS ARENA - COURT C4-SPACE FUNCTION ZN,Zone Air Relative Humidity [%] !Daily [Value,Min,Hour,Minute,Max,Hour,Minute]
2091,1,SPORTS ARENA - RING-SPACE FUNCTION ZN,Zone Air Temperature [C] !Hourly
2092,7,SPORTS ARENA - RING-SPACE FUNCTION ZN,Zone Air Relative Humidity [%] !Daily [Value,Min,Hour,Minute,Max,Hour,Minute]
2131,1,STAIRWAY-SCH-A-SPACE FUNCTION ZN,Zone Air Temperature [C] !Hourly
2132,7,STAIRWAY-SCH-A-SPACE FUNCTION ZN,Zone Air Relative Humidity [%] !Daily [Value,Min,Hour,Minute,Max,Hour,Minute]
2171,1,STAIRWAY-SCH-B-SPACE FUNCTION ZN,Zone Air Temperature [C] !Hourly
2172,7,STAIRWAY-SCH-B-SPACE FUNCTION ZN,Zone Air Relative Humidity [%] !Daily [Value,Min,Hour,Minute,Max,Hour,Minute]
2211,1,STAIRWAY-SCH-C-SPACE FUNCTION ZN,Zone Air Temperature [C] !Hourly
2212,7,STAIRWAY-SCH-C-SPACE FUNCTION ZN,Zone Air Relative Humidity [%] !Daily [Value,Min,Hour,Minute,Max,Hour,Minute]
2251,1,STAIRWAY-SCH-D-SPACE FUNCTION ZN,Zone Air Temperature [C] !Hourly
2252,7,STAIRWAY-SCH-D-SPACE FUNCTION ZN,Zone Air Relative Humidity [%] !Daily [Value,Min,Hour,Minute,Max,Hour,Minute]
2291,1,STAIRWAY-SCH-E-SPACE FUNCTION ZN,Zone Air Temperature [C] !Hourly
2292,7,STAIRWAY-SCH-E-SPACE FUNCTION ZN,Zone Air Relative Humidity [%] !Daily [Value,Min,Hour,Minute,Max,Hour,Minute]
2331,1,STAIRWAY-SCH-F-SPACE FUNCTION ZN,Zone Air Temperature [C] !Hourly
2332,7,STAIRWAY-SCH-F-SPACE FUNCTION ZN,Zone Air Relative Humidity [%] !Daily [Value,Min,Hour,Minute,Max,Hour,Minute]
2371,1,STAIRWAY-SCH-G-SPACE FUNCTION ZN,Zone Air Temperature [C] !Hourly
2372,7,STAIRWAY-SCH-G-SPACE FUNCTION ZN,Zone Air Relative Humidity [%] !Daily [Value,Min,Hour,Minute,Max,Hour,Minute]
2411,1,STAIRWAY-SCH-H-SPACE FUNCTION ZN,Zone Air Temperature [C] !Hourly
2412,7,STAIRWAY-SCH-H-SPACE FUNCTION ZN,Zone Air Relative Humidity [%] !Daily [Value,Min,Hour,Minute,Max,Hour,Minute]
2451,1,STAIRWAY-SCH-I-SPACE FUNCTION ZN,Zone Air Temperature [C] !Hourly
2452,7,STAIRWAY-SCH-I-SPACE FUNCTION ZN,Zone Air Relative Humidity [%] !Daily [Value,Min,Hour,Minute,Max,Hour,Minute]
2491,1,STORAGE AREA - OCCSENS-SPACE FUNCTION ZN,Zone Air Temperature [C] !Hourly
2492,7,STORAGE AREA - OCCSENS-SPACE FUNCTION ZN,Zone Air Relative Humidity [%] !Daily [Value,Min,Hour,Minute,Max,Hour,Minute]
2531,1,STORAGE AREA - REFRIGERATED - OCCSENS-SPACE FUNCTION ZN,Zone Air Temperature [C] !Hourly
2532,7,STORAGE AREA - REFRIGERATED - OCCSENS-SPACE FUNCTION ZN,Zone Air Relative Humidity [%] !Daily [Value,Min,Hour,Minute,Max,Hour,Minute]
2571,1,STORAGE AREA - REFRIGERATED-SPACE FUNCTION ZN,Zone Air Temperature [C] !Hourly
2572,7,STORAGE AREA - REFRIGERATED-SPACE FUNCTION ZN,Zone Air Relative Humidity [%] !Daily [Value,Min,Hour,Minute,Max,Hour,Minute]
2611,1,STORAGE AREA-SPACE FUNCTION ZN,Zone Air Temperature [C] !Hourly
2612,7,STORAGE AREA-SPACE FUNCTION ZN,Zone Air Relative Humidity [%] !Daily [Value,Min,Hour,Minute,Max,Hour,Minute]
2651,1,TRANSP. BAGGAGE-SPACE FUNCTION ZN,Zone Air Temperature [C] !Hourly
2652,7,TRANSP. BAGGAGE-SPACE FUNCTION ZN,Zone Air Relative Humidity [%] !Daily [Value,Min,Hour,Minute,Max,Hour,Minute]
2691,1,TRANSP. CONCOURSE-SPACE FUNCTION ZN,Zone Air Temperature [C] !Hourly
2692,7,TRANSP. CONCOURSE-SPACE FUNCTION ZN,Zone Air Relative Humidity [%] !Daily [Value,Min,Hour,Minute,Max,Hour,Minute]
2731,1,TRANSP. COUNTER-SPACE FUNCTION ZN,Zone Air Temperature [C] !Hourly
2732,7,TRANSP. COUNTER-SPACE FUNCTION ZN,Zone Air Relative Humidity [%] !Daily [Value,Min,Hour,Minute,Max,Hour,Minute]
2771,1,TRANSP. SEATING-SPACE FUNCTION ZN,Zone Air Temperature [C] !Hourly
2772,7,TRANSP. SEATING-SPACE FUNCTION ZN,Zone Air Relative Humidity [%] !Daily [Value,Min,Hour,Minute,Max,Hour,Minute]
2811,1,WAREHOUSE - FINE - REFRIGERATED-SPACE FUNCTION ZN,Zone Air Temperature [C] !Hourly
2812,7,WAREHOUSE - FINE - REFRIGERATED-SPACE FUNCTION ZN,Zone Air Relative Humidity [%] !Daily [Value,Min,Hour,Minute,Max,Hour,Minute]
2851,1,WAREHOUSE - FINE-SPACE FUNCTION ZN,Zone Air Temperature [C] !Hourly
2852,7,WAREHOUSE - FINE-SPACE FUNCTION ZN,Zone Air Relative Humidity [%] !Daily [Value,Min,Hour,Minute,Max,Hour,Minute]
2891,1,WAREHOUSE - MED/BLK - REFRIGERATED-SPACE FUNCTION ZN,Zone Air Temperature [C] !Hourly
2892,7,WAREHOUSE - MED/BLK - REFRIGERATED-SPACE FUNCTION ZN,Zone Air Relative Humidity [%] !Daily [Value,Min,Hour,Minute,Max,Hour,Minute]
2931,1,WAREHOUSE - MED/BLK-SPACE FUNCTION ZN,Zone Air Temperature [C] !Hourly
2932,7,WAREHOUSE - MED/BLK-SPACE FUNCTION ZN,Zone Air Relative Humidity [%] !Daily [Value,Min,Hour,Minute,Max,Hour,Minute]
2971,1,WAREHOUSE - MED/BLK2 - REFRIGERATED-SPACE FUNCTION ZN,Zone Air Temperature [C] !Hourly
2972,7,WAREHOUSE - MED/BLK2 - REFRIGERATED-SPACE FUNCTION ZN,Zone Air Relative Humidity [%] !Daily [Value,Min,Hour,Minute,Max,Hour,Minute]
3011,1,WAREHOUSE - MED/BLK2-SPACE FUNCTION ZN,Zone Air Temperature [C] !Hourly
3012,7,WAREHOUSE - MED/BLK2-SPACE FUNCTION ZN,Zone Air Relative Humidity [%] !Daily [Value,Min,Hour,Minute,Max,Hour,Minute]
3051,1,WASHROOM-SCH-A-SPACE FUNCTION ZN,Zone Air Temperature [C] !Hourly
3052,7,WASHROOM-SCH-A-SPACE FUNCTION ZN,Zone Air Relative Humidity [%] !Daily [Value,Min,Hour,Minute,Max,Hour,Minute]
3091,1,WASHROOM-SCH-B-SPACE FUNCTION ZN,Zone Air Temperature [C] !Hourly
3092,7,WASHROOM-SCH-B-SPACE FUNCTION ZN,Zone Air Relative Humidity [%] !Daily [Value,Min,Hour,Minute,Max,Hour,Minute]
10,1,Electricity:Facility [J] !TimeStep
3242,1,DistrictCooling:Facility [J] !TimeStep
3205,1,DistrictHeating:Facility [J] !TimeStep
End of Data Dictionary
1,FORT MCMURRAY AP ANN CLG .4% CONDNS DB=>MWB,  56.65,-111.22,  -7.00, 369.10
2,1, 7,21, 0, 1, 0.00,10.00,SummerDesignDay
8,14.218136923962174
10,246702009.29307596
3205,11742684.199659687
3242,162508568.90503896
2,1, 7,21, 0, 1,10.00,20.00,SummerDesignDay
8,14.171982153293495
10,246702009.29307596
3205,14815087.228142158
3242,159171244.5210727
2,1, 7,21, 0, 1,20.00,30.00,SummerDesignDay
8,14.125744780286427
10,246702009.29307596
3205,16904862.412005929
3242,156174138.66165484
2,1, 7,21, 0, 1,30.00,40.00,SummerDesignDay
8,14.079436086331978
10,246702009.29307596
3205,19336765.47219498
3242,153189417.40742246
2,1, 7,21, 0, 1,40.00,50.00,SummerDesignDay
8,14.033050387896898
10,246702009.29307596
3205,23608349.712577989
3242,150268707.7941445
2,1, 7,21, 0, 1,50.00,60.00,SummerDesignDay
8,13.986581233564835
10,246702009.29307596
3205,28068568.24236704
3242,147532417.90701989
2,1, 7,21, 0, 1, 0.00,60.00,SummerDesignDay
1531,22.200109604628087
1571,23.200487151020096
1611,22.126697082996804
1651,21.81942919908758
1691,23.02842422915467
1731,24.08408858954569
1771,23.39401967454344
1811,24.991785403733958
1851,24.16897994243449
1891,22.00000317873381
1931,24.0
1971,24.00000000000003
2011,24.000000000000019
2051,23.999033343330014
2091,24.000000000000026
2131,24.67636883338535
2171,24.000000000000019
2211,24.081435451037298
2251,24.38320157805235
2291,24.090800680008255
2331,24.000000000000015
2371,23.986105730760256
2411,24.000000000000005
2451,25.27069347905643
2491,24.61864272980328
2531,24.170154134892898
2571,24.897061269326107
2611,24.530903917555578
2651,24.000000000000015
2691,22.00548999964752
2731,24.000000000000005
2771,22.079589340801495
2811,24.95172843647021
2851,25.757747827690357
2891,24.107992617114176
2931,24.68581305125325
2971,26.315553585997493
3011,25.87609797929382
3051,24.129332317626408
3091,24.000000000000005
2,1, 7,21, 0, 2, 0.00,10.00,SummerDesignDay
8,13.95555882260429
10,152022797.28050358
3205,29386210.757555296
3242,47244916.418631698
2,1, 7,21, 0, 2,10.00,20.00,SummerDesignDay
8,13.924507755336454
10,152022797.28050358
3205,31760079.37906809
3242,46662820.311290968
2,1, 7,21, 0, 2,20.00,30.00,SummerDesignDay
8,13.893416042989206
10,152022797.28050358
3205,33433916.321783283
3242,46095477.03625558
2,1, 7,21, 0, 2,30.00,40.00,SummerDesignDay
8,13.862289589689029
10,152022797.28050358
3205,35080908.77493323
3242,45510714.5865876
2,1, 7,21, 0, 2,40.00,50.00,SummerDesignDay
8,13.831134407608739
10,152022797.28050358
3205,36661559.14538097
3242,44899806.30414074
2,1, 7,21, 0, 2,50.00,60.00,SummerDesignDay
8,13.799938415548118
10,152022797.28050358
3205,38194156.16986918
3242,44290891.23062147
2,1, 7,21, 0, 2, 0.00,60.00,SummerDesignDay
1531,22.0000225317473
1571,22.790942779488394
1611,20.657928468598553
1651,21.414951041106236
1691,22.054623079554135
1731,23.77494971712819
1771,23.101399588933963
1811,24.686600080289126
1851,23.912588970463945
1891,22.000000000014557
1931,25.3138323960281
1971,24.46029305168318
2011,24.126286116333558
2051,23.450189944594287
2091,24.762733051249893
2131,24.587556099531317
2171,24.750290135123348
2211,23.963624780668459
2251,24.073051168601663
2291,23.992883514678085
2331,24.00000000000001
2371,23.756614758771105
2411,23.999999999999998
2451,25.4769635780052
2491,24.500917129149618
2531,24.043261397772939
2571,24.75307443805528
2611,24.389603334708708
2651,24.000000000000005
2691,21.526040370467315
2731,23.999999999999998
2771,21.719536066550078
2811,24.83984537804933
2851,25.592524907202827
2891,23.991479035015943
2931,24.555825451527587
2971,26.197614479622755
3011,25.750474066653238
3051,24.016447515598654
3091,25.105321588594206
2,1, 7,21, 0, 3, 0.00,10.00,SummerDesignDay
8,13.776521671948676
10,86750840.51880868
3205,0.0
3242,43778793.690328259
2,1, 7,21, 0, 3,10.00,20.00,SummerDesignDay
8,13.753085235778466
10,86750840.51880868
3205,0.0
3242,43241836.6832933
2,1, 7,21, 0, 3,20.00,30.00,SummerDesignDay
8,13.729636002354969
10,86750840.51880868
3205,0.0
3242,42684093.527047459
2,1, 7,21, 0, 3,30.00,40.00,SummerDesignDay
8,13.706147375533054
10,86750840.51880868
3205,0.0
3242,42116048.70079637
2,1, 7,21, 0, 3,40.00,50.00,SummerDesignDay
8,13.682651961920304
10,86750840.51880868
3205,0.0
3242,41545749.21064435
2,1, 7,21, 0, 3,50.00,60.00,SummerDesignDay
8,13.659136670643687
10,86750840.51880868
3205,0.0
3242,40977425.75847074
2,1, 7,21, 0, 3, 0.00,60.00,SummerDesignDay
1531,20.49776311799039
1571,22.42722522595845
1611,19.91648816358297
1651,21.058955737340317
1691,21.547143896233338
1731,23.486909784575557
1771,22.83534728057283
1811,24.40829604192375
1851,23.68144451127443
1891,19.689197978759926
1931,24.776170737923093
1971,23.85645705541904
2011,23.560911389948559
2051,22.739755519458574
2091,24.117892921288786
2131,24.511132139023684
2171,24.903701876418628
2211,23.858191101018006
2251,23.725594163625716
2291,23.898371549281579
2331,24.00000000000001
2371,23.54834538786733
2411,24.000000000000015
2451,25.284985106871788
2491,24.390228056697507
2531,23.93390319430482
2571,24.626423897133987
2611,24.264833534493133
2651,24.000000000000019
2691,21.17771136664108
2731,24.000000000000015
2771,21.43479355600493
2811,24.747277808759674
2851,25.42447074969175
2891,23.889832569435244
2931,24.436505591549734
2971,26.08853839704479
3011,25.641702425399786
3051,23.914234418523227
3091,25.362277985093546
2,1, 7,21, 0, 4, 0.00,10.00,SummerDesignDay
8,13.63560137410855
10,85918347.44780691
3205,0.0
3242,40088746.72796905
2,1, 7,21, 0, 4,10.00,20.00,SummerDesignDay
8,13.612040802606578
10,85918347.44780691
3205,0.0
3242,39492464.65816842
2,1, 7,21, 0, 4,20.00,30.00,SummerDesignDay
8,13.58846620506876
10,85918347.44780691
3205,0.0
3242,38912052.18811424
2,1, 7,21, 0, 4,30.00,40.00,SummerDesignDay
8,13.56487178447336
10,85918347.44780691
3205,0.0
3242,38332344.00399723
2,1, 7,21, 0, 4,40.00,50.00,SummerDesignDay
8,13.541257354069103
10,85918347.44780691
3205,0.0
3242,37753597.0198171
2,1, 7,21, 0, 4,50.00,60.00,SummerDesignDay
8,13.517617463812285
10,85918347.44780691
3205,0.0
3242,37152546.70995877
2,1, 7,21, 0, 4, 0.00,60.00,SummerDesignDay
1531,19.61662545838725
1571,22.07723584358043
1611,19.451001314678803
1651,20.71273779926565
1691,21.161826752243234
1731,23.17721767877123
1771,22.553093030663047
1811,24.114263184455184
1851,23.435689937171074
1891,18.767898784885995
1931,24.200436179394044
1971,23.371971852841527
2011,23.14234096494104
2051,22.357065336530906
2091,23.57780876271953
2131,24.42990079806388
2171,24.73333648482897
2211,23.74799093105157
2251,23.345471794364526
2291,23.789497883636057
2331,24.000000000000015
2371,23.417315243696185
2411,24.000000000000005
2451,25.141760374734817
2491,24.26140695099275
2531,23.82302028113955
2571,24.49586222661603
2611,24.134156166351489
2651,24.00000000000003
2691,20.904423006046199
2731,23.99999999999999
2771,21.19655904636696
2811,24.653882619821699
2851,25.21621526715929
2891,23.78408262986781
2931,24.308680504126927
2971,25.955089508886777
3011,25.526476170451205
3051,23.794258032796049
3091,25.17704624911512
2,1, 7,21, 0, 5, 0.00,10.00,SummerDesignDay
8,13.50185415824011
10,85918347.44780691
3205,0.0
3242,36649611.66144575
2,1, 7,21, 0, 5,10.00,20.00,SummerDesignDay
8,13.486076034032447
10,85918347.44780691
3205,0.0
3242,36608861.21648003
2,1, 7,21, 0, 5,20.00,30.00,SummerDesignDay
8,13.470289340350983
10,85918347.44780691
3205,0.0
3242,36563712.447499129
2,1, 7,21, 0, 5,30.00,40.00,SummerDesignDay
8,13.454493322631063
10,85918347.44780691
3205,0.0
3242,36612245.407017219
2,1, 7,21, 0, 5,40.00,50.00,SummerDesignDay
8,13.438688835118548
10,85918347.44780691
3205,0.0
3242,36743974.599156048
2,1, 7,21, 0, 5,50.00,60.00,SummerDesignDay
8,13.422888173889437
10,85918347.44780691
3205,0.0
3242,36899201.453600119
2,1, 7,21, 0, 5, 0.00,60.00,SummerDesignDay
1531,19.448708730704035
1571,21.986076970872025
1611,19.13589447477085
1651,20.410472267619317
1691,20.825468877033737
1731,22.994697572411629
1771,22.305277813811114
1811,23.850442081295389
1851,23.32232513801542
1891,18.42912920554864
1931,23.935219792228528
1971,23.13916025780065
2011,23.021334872620519
2051,22.215710402502809
2091,23.39737377350383
2131,24.359258988742608
2171,24.619741011160519
2211,23.654254618656059
2251,23.096635322115234
2291,23.695101485009717
2331,24.0
2371,23.32698878915549
2411,24.0
2451,25.033822396096569
2491,24.210893096847359
2531,23.72801055029667
2571,24.497437313407955
2611,24.0288204830816
2651,24.000000000000019
2691,20.678108086017795
2731,24.00000000000003
2771,21.000213141600879
2811,24.64009377893112
2851,25.083015302871386
2891,23.694522359453715
2931,24.31183576617622
2971,25.832645528746224
3011,25.432167977681304
3051,23.68234908128261
3091,25.125606692835974
2,1, 7,21, 0, 6, 0.00,10.00,SummerDesignDay
8,13.438688835118548
10,85918347.44780691
3205,0.0
3242,37495696.26027108
2,1, 7,21, 0, 6,10.00,20.00,SummerDesignDay
8,13.454493322631063
10,85918347.44780691
3205,0.0
3242,38088782.8976517
2,1, 7,21, 0, 6,20.00,30.00,SummerDesignDay
8,13.470289340350983
10,85918347.44780691
3205,0.0
3242,38677498.91096414
2,1, 7,21, 0, 6,30.00,40.00,SummerDesignDay
8,13.486076034032447
10,85918347.44780691
3205,0.0
3242,39259876.905356738
2,1, 7,21, 0, 6,40.00,50.00,SummerDesignDay
8,13.50185415824011
10,85918347.44780691
3205,0.0
3242,39832018.50731296
2,1, 7,21, 0, 6,50.00,60.00,SummerDesignDay
8,13.517617463812285
10,85918347.44780691
3205,0.0
3242,40391004.16658425
2,1, 7,21, 0, 6, 0.00,60.00,SummerDesignDay
1531,20.085691159732364
1571,22.34390956068413
1611,19.131249732244347
1651,20.254757703251817
1691,20.644908910452757
1731,23.247484098365566
1771,22.168077205480697
1811,23.677362462315214
1851,23.6344620950541
1891,18.434123311799259
1931,23.787124395743999
1971,23.023005540080974
2011,23.32967969432129
2051,22.218604826278165
2091,23.370345374515009
2131,24.319013012156366
2171,24.56153374606684
2211,23.588165028620865
2251,23.171007430953734
2291,23.634723170935435
2331,24.00000000000001
2371,23.267850438683099
2411,24.000000000000015
2451,24.978358505533014
2491,24.269103570901775
2531,23.66279460104231
2571,24.954903581474267
2611,23.980677457488637
2651,24.000000000000019
2691,20.608371948099437
2731,24.000000000000033
2771,20.959883136043407
2811,24.731512173772246
2851,25.062858753802386
2891,23.644188437913824
2931,24.765947807850798
2971,25.757294973106558
3011,25.38702590137561
3051,23.60096412363068
3091,25.18475586447873
2,1, 7,21, 0, 7, 0.00,10.00,SummerDesignDay
8,13.572736920571789
10,88970822.04148005
3205,0.0
3242,159719068.07562936
2,1, 7,21, 0, 7,10.00,20.00,SummerDesignDay
8,13.627748229152554
10,88970822.04148005
3205,0.0
3242,65298758.46452193
2,1, 7,21, 0, 7,20.00,30.00,SummerDesignDay
8,13.682651961920304
10,88970822.04148005
3205,0.0
3242,131430814.28139512
2,1, 7,21, 0, 7,30.00,40.00,SummerDesignDay
8,13.737448093244995
10,88970822.04148005
3205,0.0
3242,79504457.1686896
2,1, 7,21, 0, 7,40.00,50.00,SummerDesignDay
8,13.792137011831216
10,88970822.04148005
3205,0.0
3242,86184328.85021343
2,1, 7,21, 0, 7,50.00,60.00,SummerDesignDay
8,13.846719282840333
10,88970822.04148005
3205,0.0
3242,87131909.8725012
2,1, 7,21, 0, 7, 0.00,60.00,SummerDesignDay
1531,21.066336041097814
1571,22.688932900355309
1611,19.559199299844555
1651,20.376492417886259
1691,20.746406550243724
1731,23.669491317314934
1771,22.227041446180455
1811,23.668147126257595
1851,24.08869770288652
1891,18.915408047230895
1931,23.815620519147687
1971,23.08416883101579
2011,23.79756725428226
2051,22.26455176815492
2091,23.39203099581678
2131,23.97853207889257
2171,24.571260561004239
2211,23.583022376862038
2251,23.544424443812067
2291,23.636005381490024
2331,24.00000000000001
2371,23.376372387398236
2411,24.00000000000003
2451,24.990699564546806
2491,24.244244425113157
2531,23.663742798907398
2571,25.49981701261474
2611,24.008846040556834
2651,24.000000000000019
2691,20.82373838930135
2731,24.000000000000015
2771,21.20088727331533
2811,23.95804037363405
2851,23.944148926419918
2891,23.681106744405196
2931,23.954735700768468
2971,23.92595638409894
3011,23.934837923269936
3051,23.587337675624018
3091,25.151787552421735
2,1, 7,21, 0, 8, 0.00,10.00,SummerDesignDay
8,13.978831900527043
10,118945260.08381975
3205,0.0
3242,147681342.42752076
2,1, 7,21, 0, 8,10.00,20.00,SummerDesignDay
8,14.110321014287419
10,118945260.08381975
3205,0.0
3242,123179697.78307611
2,1, 7,21, 0, 8,20.00,30.00,SummerDesignDay
8,14.241191509616986
10,118945260.08381975
3205,0.0
3242,140578643.86526156
2,1, 7,21, 0, 8,30.00,40.00,SummerDesignDay
8,14.371447531304272
10,118945260.08381975
3205,0.0
3242,150980835.98360748
2,1, 7,21, 0, 8,40.00,50.00,SummerDesignDay
8,14.501093766564925
10,118945260.08381975
3205,0.0
3242,161858627.55242259
2,1, 7,21, 0, 8,50.00,60.00,SummerDesignDay
8,14.630134792273804
10,118945260.08381975
3205,0.0
3242,171785554.2060494
2,1, 7,21, 0, 8, 0.00,60.00,SummerDesignDay
1531,22.61457761614869
1571,23.73032744654094
1611,20.733935346631829
1651,20.965614684541703
1691,21.31760090325524
1731,23.994760849074653
1771,22.60711246488364
1811,23.88799691060022
1851,23.991173472405149
1891,20.210257381192834
1931,24.118117638524116
1971,23.42826344116284
2011,24.472491884431724
2051,22.60935002252477
2091,23.708207632812873
2131,24.0
2171,24.679748443446046
2211,23.67108218885117
2251,23.98917635162864
2291,23.724885595159564
2331,24.000000000000005
2371,23.729007173098638
2411,24.000000000000005
2451,25.097056467355988
2491,23.984867272137519
2531,23.768416515123307
2571,23.93386176231287
2611,23.998638558188238
2651,24.0
2691,21.529449856989954
2731,24.00000000000001
2771,21.925003098767819
2811,24.0
2851,23.99999999999999
2891,23.927881506850075
2931,23.999999999999859
2971,23.999999999999575
3011,23.99999999999987
3051,23.87311370765659
3091,25.229937438371168
2,1, 7,21, 0, 9, 0.00,10.00,SummerDesignDay
8,14.773641492809972
10,234310424.96305857
3205,11603897.997065314
3242,305227214.30609229
2,1, 7,21, 0, 9,10.00,20.00,SummerDesignDay
8,14.91640948124148
10,234310424.96305857
3205,0.0
3242,284619585.8614191
2,1, 7,21, 0, 9,20.00,30.00,SummerDesignDay
8,15.05843890714102
10,234310424.96305857
3205,0.0
3242,328368277.6594125
2,1, 7,21, 0, 9,30.00,40.00,SummerDesignDay
8,15.199735893563798
10,234310424.96305857
3205,0.0
3242,343161377.6204568
2,1, 7,21, 0, 9,40.00,50.00,SummerDesignDay
8,15.340306256439395
10,234310424.96305857
3205,0.0
3242,365324871.2757021
2,1, 7,21, 0, 9,50.00,60.00,SummerDesignDay
8,15.48015101768072
10,234310424.96305857
3205,0.0
3242,386320062.75923648
2,1, 7,21, 0, 9, 0.00,60.00,SummerDesignDay
1531,23.93626145873964
1571,23.99999999888929
1611,22.60387223793178
1651,22.51135857940503
1691,22.384479849516237
1731,23.9999999999998
1771,23.640568806434279
1811,23.99999997263747
1851,23.99999999999967
1891,22.24360430427798
1931,23.99241837834495
1971,23.93153225624738
2011,23.98328810874744
2051,23.281907558385148
2091,23.998688317406278
2131,24.000000000000005
2171,23.96103193723316
2211,23.963169814575207
2251,23.999999999999984
2291,23.97138998247676
2331,24.0
2371,23.990882947935764
2411,24.00000000000001
2451,25.32062533600533
2491,24.0
2531,23.989321359032677
2571,23.99999999999919
2611,24.0
2651,24.00000000000001
2691,22.70427419103827
2731,24.00000000000001
2771,23.102837287457743
2811,24.0
2851,24.000000000000005
2891,23.999999999996125
2931,24.000000000000005
2971,24.000000000000005
3011,24.000000000000015
3051,23.999999999448496
3091,23.942997422497297
2,1, 7,21, 0,10, 0.00,10.00,SummerDesignDay
8,15.60467292907716
10,359868004.99181738
3205,0.0
3242,474247788.30986598
2,1, 7,21, 0,10,10.00,20.00,SummerDesignDay
8,15.72862731650033
10,359868004.99181738
3205,0.0
3242,515597117.335027
2,1, 7,21, 0,10,20.00,30.00,SummerDesignDay
8,15.852017409284228
10,359868004.99181738
3205,0.0
3242,547200588.3695374
2,1, 7,21, 0,10,30.00,40.00,SummerDesignDay
8,15.974848118364367
10,359868004.99181738
3205,0.0
3242,587750290.338454
2,1, 7,21, 0,10,40.00,50.00,SummerDesignDay
8,16.097123145563505
10,359868004.99181738
3205,0.0
3242,621657369.0348839
2,1, 7,21, 0,10,50.00,60.00,SummerDesignDay
8,16.218846351168599
10,359868004.99181738
3205,0.0
3242,654886193.3097944
2,1, 7,21, 0,10, 0.00,60.00,SummerDesignDay
1531,23.999999980340126
1571,24.0
1611,24.6716604904416
1651,23.82028448583031
1691,23.752239217601159
1731,24.000000000000005
1771,23.999998785615817
1811,24.00000000000001
1851,24.00000000000001
1891,23.941678968335336
1931,23.999999999995194
1971,23.999999998280079
2011,23.999999999990135
2051,23.984943415734404
2091,23.999999999999134
2131,24.00000000000001
2171,23.999999999999998
2211,23.999999999999898
2251,24.000000000000019
2291,23.999999999999927
2331,24.000000000000005
2371,23.999720220048869
2411,24.000000000000019
2451,25.627672519326877
2491,24.000000000000005
2531,23.999999999999969
2571,24.000000000000015
2611,24.0
2651,24.000000000000005
2691,23.867219192521746
2731,24.00000000000001
2771,23.98512433953118
2811,24.00000000000001
2851,24.0
2891,24.00000000000001
2931,24.00000000000001
2971,24.00000000000001
3011,24.00000000000001
3051,24.0
3091,23.99999999999989
2,1, 7,21, 0,11, 0.00,10.00,SummerDesignDay
8,16.325793027093189
10,401437909.01869317
3205,0.0
3242,721617505.8514901
2,1, 7,21, 0,11,10.00,20.00,SummerDesignDay
8,16.432322158488288
10,401437909.01869317
3205,0.0
3242,752569479.8968933
2,1, 7,21, 0,11,20.00,30.00,SummerDesignDay
8,16.538424180249178
10,401437909.01869317
3205,0.0
3242,781428048.9150285
2,1, 7,21, 0,11,30.00,40.00,SummerDesignDay
8,16.644108396469087
10,401437909.01869317
3205,0.0
3242,809974893.9064056
2,1, 7,21, 0,11,40.00,50.00,SummerDesignDay
8,16.749376736593655
10,401437909.01869317
3205,0.0
3242,838306955.5659524
2,1, 7,21, 0,11,50.00,60.00,SummerDesignDay
8,16.854232613237156
10,401437909.01869317
3205,0.0
3242,866350932.9448423
2,1, 7,21, 0,11, 0.00,60.00,SummerDesignDay
1531,24.0
1571,24.00000000000004
1611,26.445419551874648
1651,23.999999818480423
1691,25.180107587968295
1731,24.00000000000001
1771,23.99999999999997
1811,24.00000000000001
1851,24.00000000000003
1891,23.999999896634763
1931,24.000000000000047
1971,24.000000000000047
2011,23.99999999999999
2051,23.999999999995528
2091,24.00000000000001
2131,24.000000000000019
2171,24.0
2211,24.0
2251,24.000000000000033
2291,24.0
2331,24.000000000000005
2371,24.0
2411,24.000000000000015
2451,25.93875975763821
2491,24.000000000000005
2531,24.0
2571,24.000000000000019
2611,24.000000000000015
2651,24.00000000000003
2691,23.999999633390428
2731,24.00000000000003
2771,23.999999996334809
2811,24.000000000000015
2851,24.00000000000003
2891,24.000000000000005
2931,24.00000000000001
2971,23.99999999999999
3011,24.0
3051,24.000000000000015
3091,24.000000000000015
2,1, 7,21, 0,12, 0.00,10.00,SummerDesignDay
8,16.92390823520069
10,433241394.32853868
3205,0.0
3242,925098961.6616652
2,1, 7,21, 0,12,10.00,20.00,SummerDesignDay
8,16.99340178950456
10,433241394.32853868
3205,0.0
3242,946464532.5946547
2,1, 7,21, 0,12,20.00,30.00,SummerDesignDay
8,17.06272006743463
10,433241394.32853868
3205,0.0
3242,966690242.9885544
2,1, 7,21, 0,12,30.00,40.00,SummerDesignDay
8,17.131853229172639
10,433241394.32853868
3205,0.0
3242,986944560.5748526
2,1, 7,21, 0,12,40.00,50.00,SummerDesignDay
8,17.200807172194087
10,433241394.32853868
3205,0.0
3242,1007153494.914434
2,1, 7,21, 0,12,50.00,60.00,SummerDesignDay
8,17.269582116758607
10,433241394.32853868
3205,0.0
3242,1027184090.1230105
2,1, 7,21, 0,12, 0.00,60.00,SummerDesignDay
1531,24.000000000000069
1571,24.0
1611,27.847898234768338
1651,23.999999999987467
1691,26.36099153432676
1731,24.00000000000004
1771,24.0
1811,24.000000000000026
1851,24.000000000000055
1891,23.999999999951169
1931,24.00000000000004
1971,24.0
2011,24.000000000000015
2051,24.000000000000015
2091,23.999999999999984
2131,24.000000000000015
2171,24.000000000000015
2211,23.999999999999998
2251,23.999999999999948
2291,24.000000000000019
2331,24.000000000000019
2371,24.0
2411,24.00000000000001
2451,26.25113041054985
2491,24.0
2531,24.000000000000005
2571,24.00000000000003
2611,24.000000000000019
2651,24.000000000000019
2691,23.999999999940106
2731,24.000000000000044
2771,23.999999999999447
2811,24.000000000000019
2851,24.00000000000003
2891,24.00000000000001
2931,24.0
2971,24.0
3011,23.99999999999999
3051,23.999999999999998
3091,23.99999999999999
2,1, 7,21, 0,13, 0.00,10.00,SummerDesignDay
8,17.32447360221357
10,432408901.2575369
3205,0.0
3242,1080385454.6508277
2,1, 7,21, 0,13,10.00,20.00,SummerDesignDay
8,17.379251291230806
10,432408901.2575369
3205,0.0
3242,1097786483.8888386
2,1, 7,21, 0,13,20.00,30.00,SummerDesignDay
8,17.433921312061729
10,432408901.2575369
3205,0.0
3242,1114412435.7609926
2,1, 7,21, 0,13,30.00,40.00,SummerDesignDay
8,17.488473222557489
10,432408901.2575369
3205,0.0
3242,1130852807.596055
2,1, 7,21, 0,13,40.00,50.00,SummerDesignDay
8,17.542913447755134
10,432408901.2575369
3205,0.0
3242,1146741811.9153989