Program Version,EnergyPlus, Version 8.9.0-eba93e8e1b, YMD=2019.03.07 21:45
1,5,Environment Title[],Latitude[deg],Longitude[deg],Time Zone[],Elevation[m]
2,8,Day of Simulation[],Month[],Day of Month[],DST Indicator[1=yes 0=no],Hour[],StartMinute[],EndMinute[],DayType
3,5,Cumulative Day of Simulation[],Month[],Day of Month[],DST Indicator[1=yes 0=no],DayType  ! When Daily Report Variables Requested
4,2,Cumulative Days of Simulation[],Month[]  ! When Monthly Report Variables Requested
5,1,Cumulative Days of Simulation[] ! When Run Period Report Variables Requested
6,1,Calendar Year of Simulation[] ! When Annual Report Variables Requested
7,9,Environment,Site Outdoor Air Drybulb Temperature [C] !Monthly [Value,Min,Day,Hour,Minute,Max,Day,Hour,Minute]
8,1,Environment,Site Outdoor Air Wetbulb Temperature [C] !TimeStep
927,1,WAREHOUSE - MED/BLK - REFRIGERATED-SPACE FUNCTION ZN,Zone Air Temperature [C] !Hourly
928,7,WAREHOUSE - MED/BLK - REFRIGERATED-SPACE FUNCTION ZN,Zone Air Relative Humidity [%] !Daily [Value,Min,Hour,Minute,Max,Hour,Minute]
967,1,WAREHOUSE - MED/BLK-SPACE FUNCTION ZN,Zone Air Temperature [C] !Hourly
968,7,WAREHOUSE - MED/BLK-SPACE FUNCTION ZN,Zone Air Relative Humidity [%] !Daily [Value,Min,Hour,Minute,Max,Hour,Minute]
1007,1,WAREHOUSE - MED/BLK2 - REFRIGERATED-SPACE FUNCTION ZN,Zone Air Temperature [C] !Hourly
1008,7,WAREHOUSE - MED/BLK2 - REFRIGERATED-SPACE FUNCTION ZN,Zone Air Relative Humidity [%] !Daily [Value,Min,Hour,Minute,Max,Hour,Minute]
1047,1,WAREHOUSE - MED/BLK2-SPACE FUNCTION ZN,Zone Air Temperature [C] !Hourly
1048,7,WAREHOUSE - MED/BLK2-SPACE FUNCTION ZN,Zone Air Relative Humidity [%] !Daily [Value,Min,Hour,Minute,Max,Hour,Minute]
1087,1,WASHROOM-SCH-A-SPACE FUNCTION ZN,Zone Air Temperature [C] !Hourly
1088,7,WASHROOM-SCH-A-SPACE FUNCTION ZN,Zone Air Relative Humidity [%] !Daily [Value,Min,Hour,Minute,Max,Hour,Minute]
1127,1,WASHROOM-SCH-B-SPACE FUNCTION ZN,Zone Air Temperature [C] !Hourly
1128,7,WASHROOM-SCH-B-SPACE FUNCTION ZN,Zone Air Relative Humidity [%] !Daily [Value,Min,Hour,Minute,Max,Hour,Minute]
1167,1,WASHROOM-SCH-C-SPACE FUNCTION ZN,Zone Air Temperature [C] !Hourly
1168,7,WASHROOM-SCH-C-SPACE FUNCTION ZN,Zone Air Relative Humidity [%] !Daily [Value,Min,Hour,Minute,Max,Hour,Minute]
1207,1,WASHROOM-SCH-D-SPACE FUNCTION ZN,Zone Air Temperature [C] !Hourly
1208,7,WASHROOM-SCH-D-SPACE FUNCTION ZN,Zone Air Relative Humidity [%] !Daily [Value,Min,Hour,Minute,Max,Hour,Minute]
1247,1,WASHROOM-SCH-E-SPACE FUNCTION ZN,Zone Air Temperature [C] !Hourly
1248,7,WASHROOM-SCH-E-SPACE FUNCTION ZN,Zone Air Relative Humidity [%] !Daily [Value,Min,Hour,Minute,Max,Hour,Minute]
1287,1,WASHROOM-SCH-F-SPACE FUNCTION ZN,Zone Air Temperature [C] !Hourly
1288,7,WASHROOM-SCH-F-SPACE FUNCTION ZN,Zone Air Relative Humidity [%] !Daily [Value,Min,Hour,Minute,Max,Hour,Minute]
1327,1,WASHROOM-SCH-G-SPACE FUNCTION ZN,Zone Air Temperature [C] !Hourly
1328,7,WASHROOM-SCH-G-SPACE FUNCTION ZN,Zone Air Relative Humidity [%] !Daily [Value,Min,Hour,Minute,Max,Hour,Minute]
1367,1,WASHROOM-SCH-H-SPACE FUNCTION ZN,Zone Air Temperature [C] !Hourly
1368,7,WASHROOM-SCH-H-SPACE FUNCTION ZN,Zone Air Relative Humidity [%] !Daily [Value,Min,Hour,Minute,Max,Hour,Minute]
1407,1,WASHROOM-SCH-I-SPACE FUNCTION ZN,Zone Air Temperature [C] !Hourly
1408,7,WASHROOM-SCH-I-SPACE FUNCTION ZN,Zone Air Relative Humidity [%] !Daily [Value,Min,Hour,Minute,Max,Hour,Minute]
1447,1,WHOLEBUILDING-SPORTS ARENA ZN,Zone Air Temperature [C] !Hourly
1448,7,WHOLEBUILDING-SPORTS ARENA ZN,Zone Air Relative Humidity [%] !Daily [Value,Min,Hour,Minute,Max,Hour,Minute]
1487,1,WHOLEBUILDING-TOWN HALL ZN,Zone Air Temperature [C] !Hourly
1488,7,WHOLEBUILDING-TOWN HALL ZN,Zone Air Relative Humidity [%] !Daily [Value,Min,Hour,Minute,Max,Hour,Minute]
1527,1,WHOLEBUILDING-TRANSPORTATION ZN,Zone Air Temperature [C] !Hourly
1528,7,WHOLEBUILDING-TRANSPORTATION ZN,Zone Air Relative Humidity [%] !Daily [Value,Min,Hour,Minute,Max,Hour,Minute]
1567,1,WHOLEBUILDING-WAREHOUSE - REFRIGERATED ZN,Zone Air Temperature [C] !Hourly
1568,7,WHOLEBUILDING-WAREHOUSE - REFRIGERATED ZN,Zone Air Relative Humidity [%] !Daily [Value,Min,Hour,Minute,Max,Hour,Minute]
1607,1,WHOLEBUILDING-WAREHOUSE ZN,Zone Air Temperature [C] !Hourly
1608,7,WHOLEBUILDING-WAREHOUSE ZN,Zone Air Relative Humidity [%] !Daily [Value,Min,Hour,Minute,Max,Hour,Minute]
1647,1,WHOLEBUILDING-WORKSHOP ZN,Zone Air Temperature [C] !Hourly
1648,7,WHOLEBUILDING-WORKSHOP ZN,Zone Air Relative Humidity [%] !Daily [Value,Min,Hour,Minute,Max,Hour,Minute]
1687,1,WORKSHOP SPACE-SPACE FUNCTION ZN,Zone Air Temperature [C] !Hourly
1688,7,WORKSHOP SPACE-SPACE FUNCTION ZN,Zone Air Relative Humidity [%] !Daily [Value,Min,Hour,Minute,Max,Hour,Minute]
10,1,Electricity:Facility [J] !TimeStep
1838,1,DistrictCooling:Facility [J] !TimeStep
1801,1,DistrictHeating:Facility [J] !TimeStep
End of Data Dictionary
1,FORT MCMURRAY AP ANN CLG .4% CONDNS DB=>MWB,  56.65,-111.22,  -7.00, 369.10
2,1, 7,21, 0, 1, 0.00,10.00,SummerDesignDay
8,14.218136923962174
10,70416913.98173033
1801,0.0
1838,71372960.05264275
2,1, 7,21, 0, 1,10.00,20.00,SummerDesignDay
8,14.171982153293495
10,70416913.98173033
1801,0.0
1838,70283498.87450677
2,1, 7,21, 0, 1,20.00,30.00,SummerDesignDay
8,14.125744780286427
10,70416913.98173033
1801,0.0
1838,69377602.04948202
2,1, 7,21, 0, 1,30.00,40.00,SummerDesignDay
8,14.079436086331978
10,70416913.98173033
1801,0.0
1838,68494831.48719251
2,1, 7,21, 0, 1,40.00,50.00,SummerDesignDay
8,14.033050387896898
10,70416913.98173033
1801,0.0
1838,67632738.08968817
2,1, 7,21, 0, 1,50.00,60.00,SummerDesignDay
8,13.986581233564835
10,70416913.98173033
1801,0.0
1838,66785028.912344928
2,1, 7,21, 0, 1, 0.00,60.00,SummerDesignDay
927,24.29145486518155
967,23.606509275970429
1007,25.05003019350943
1047,25.511007409603
1087,25.973173627862069
1127,24.0
1167,24.14898823368576
1207,24.42130602174305
1247,23.840901487033617
1287,24.00000000000001
1327,24.000000000000019
1367,24.000000000000019
1407,24.515790095594999
1447,24.00000000000001
1487,23.774465376571567
1527,23.99999999999999
1567,25.051197683997768
1607,24.631183489891979
1647,24.043390717921999
1687,22.616048654854933
2,1, 7,21, 0, 2, 0.00,10.00,SummerDesignDay
8,13.95555882260429
10,50628328.6656847
1801,0.0
1838,42582054.762730378
2,1, 7,21, 0, 2,10.00,20.00,SummerDesignDay
8,13.924507755336454
10,50628328.6656847
1801,0.0
1838,41950607.32921612
2,1, 7,21, 0, 2,20.00,30.00,SummerDesignDay
8,13.893416042989206
10,50628328.6656847
1801,0.0
1838,41443036.827209059
2,1, 7,21, 0, 2,30.00,40.00,SummerDesignDay
8,13.862289589689029
10,50628328.6656847
1801,0.0
1838,40947398.85771273
2,1, 7,21, 0, 2,40.00,50.00,SummerDesignDay
8,13.831134407608739
10,50628328.6656847
1801,0.0
1838,40470587.13677808
2,1, 7,21, 0, 2,50.00,60.00,SummerDesignDay
8,13.799938415548118
10,50628328.6656847
1801,0.0
1838,39995182.68107683
2,1, 7,21, 0, 2, 0.00,60.00,SummerDesignDay
927,23.97865365566936
967,23.30477164471606
1007,24.872388016337984
1047,25.357310664310288
1087,25.77321899995937
1127,24.905927571746408
1167,24.027533970409907
1207,24.315522207400993
1247,23.520423963006484
1287,24.00000000000001
1327,24.00000000000001
1367,24.0
1407,24.090646946992867
1447,24.861683930534708
1487,23.450273639897039
1527,24.000000000000019
1567,24.926483277717194
1607,24.50756385719772
1647,23.81368951067975
1687,22.289370917039475
2,1, 7,21, 0, 3, 0.00,10.00,SummerDesignDay
8,13.776521671948676
10,41695903.00383335
1801,0.0
1838,39565322.35640116
2,1, 7,21, 0, 3,10.00,20.00,SummerDesignDay
8,13.753085235778466
10,41695903.00383335
1801,0.0
1838,39132952.25872426
2,1, 7,21, 0, 3,20.00,30.00,SummerDesignDay
8,13.729636002354969
10,41695903.00383335
1801,0.0
1838,38699674.90611748
2,1, 7,21, 0, 3,30.00,40.00,SummerDesignDay
8,13.706147375533054
10,41695903.00383335
1801,0.0
1838,38266424.16769636
2,1, 7,21, 0, 3,40.00,50.00,SummerDesignDay
8,13.682651961920304
10,41695903.00383335
1801,0.0
1838,37833457.26978403
2,1, 7,21, 0, 3,50.00,60.00,SummerDesignDay
8,13.659136670643687
10,41695903.00383335
1801,0.0
1838,37400932.30679335
2,1, 7,21, 0, 3, 0.00,60.00,SummerDesignDay
927,23.682826897906723
967,23.023304538068318
1007,24.703595681318914
1047,25.20350915655568
1087,25.582797470175266
1127,24.855184528313015
1167,23.91980238299307
1207,24.209736410190158
1247,23.214665777860139
1287,24.000000000000005
1327,24.000000000000005
1367,24.00000000000001
1407,23.55384131392095
1447,24.65971616123166
1487,23.13916765519957
1527,24.000000000000033
1567,24.815351666348169
1607,24.396911020085488
1647,23.620720877064924
1687,22.02674491486296
2,1, 7,21, 0, 4, 0.00,10.00,SummerDesignDay
8,13.63560137410855
10,40520287.78725917
1801,0.0
1838,36425526.20124677
2,1, 7,21, 0, 4,10.00,20.00,SummerDesignDay
8,13.612040802606578
10,40520287.78725917
1801,0.0
1838,35952737.200957
2,1, 7,21, 0, 4,20.00,30.00,SummerDesignDay
8,13.58846620506876
10,40520287.78725917
1801,0.0
1838,35510264.99629378
2,1, 7,21, 0, 4,30.00,40.00,SummerDesignDay
8,13.56487178447336
10,40520287.78725917
1801,0.0
1838,35071559.76648209
2,1, 7,21, 0, 4,40.00,50.00,SummerDesignDay
8,13.541257354069103
10,40520287.78725917
1801,0.0
1838,34635694.16079989
2,1, 7,21, 0, 4,50.00,60.00,SummerDesignDay
8,13.517617463812285
10,40520287.78725917
1801,0.0
1838,34177293.639248538
2,1, 7,21, 0, 4, 0.00,60.00,SummerDesignDay
927,23.424573192448308
967,22.780521052333474
1007,24.548219064608646
1047,25.053289515388028
1087,25.403585285865547
1127,24.568880944301893
1167,23.822986084486119
1207,24.11698531382369
1247,22.94878891061249
1287,24.000000000000005
1327,24.000000000000005
1367,24.000000000000019
1407,23.277128220862296
1447,24.39354954880548
1487,22.86982463479627
1527,24.000000000000015
1567,24.713802627870235
1607,24.293880447510849
1647,23.446204257034809
1687,21.79677298278533
2,1, 7,21, 0, 5, 0.00,10.00,SummerDesignDay
8,13.50185415824011
10,40520287.78725917
1801,0.0
1838,33765629.85375277
2,1, 7,21, 0, 5,10.00,20.00,SummerDesignDay
8,13.486076034032447
10,40520287.78725917
1801,0.0
1838,34324961.742592129
2,1, 7,21, 0, 5,20.00,30.00,SummerDesignDay
8,13.470289340350983
10,40520287.78725917
1801,0.0
1838,34927652.445482458
2,1, 7,21, 0, 5,30.00,40.00,SummerDesignDay
8,13.454493322631063
10,40520287.78725917
1801,0.0
1838,35701092.02312104
2,1, 7,21, 0, 5,40.00,50.00,SummerDesignDay
8,13.438688835118548
10,40520287.78725917
1801,0.0
1838,36641554.1621722
2,1, 7,21, 0, 5,50.00,60.00,SummerDesignDay
8,13.422888173889437
10,40520287.78725917
1801,0.0
1838,37615002.70214513
2,1, 7,21, 0, 5, 0.00,60.00,SummerDesignDay
927,23.259201925749907
967,22.76230817899392
1007,24.465889142184037
1047,24.90368613007466
1087,25.232126176981909
1127,24.44815093049675
1167,23.731216053036495
1207,24.030431537187569
1247,23.001788542531853
1287,24.000000000000005
1327,24.00000000000001
1367,24.0
1407,23.11142156315478
1447,24.242272899155567
1487,22.696525170168188
1527,24.00000000000003
1567,24.623771163684709
1607,24.26115456044656
1647,23.282493682495458
1687,21.588086632583118
2,1, 7,21, 0, 6, 0.00,10.00,SummerDesignDay
8,13.438688835118548
10,40520287.78725917
1801,0.0
1838,38728534.0720548
2,1, 7,21, 0, 6,10.00,20.00,SummerDesignDay
8,13.454493322631063
10,40520287.78725917
1801,0.0
1838,39843585.28142124
2,1, 7,21, 0, 6,20.00,30.00,SummerDesignDay
8,13.470289340350983
10,40520287.78725917
1801,0.0
1838,40938959.66416796
2,1, 7,21, 0, 6,30.00,40.00,SummerDesignDay
8,13.486076034032447
10,40520287.78725917
1801,0.0
1838,42001439.79042029
2,1, 7,21, 0, 6,40.00,50.00,SummerDesignDay
8,13.50185415824011
10,40520287.78725917
1801,0.0
1838,43023722.93204203
2,1, 7,21, 0, 6,50.00,60.00,SummerDesignDay
8,13.517617463812285
10,40520287.78725917
1801,0.0
1838,44001193.3209248
2,1, 7,21, 0, 6, 0.00,60.00,SummerDesignDay
927,23.400984588618014
967,23.22462324712986
1007,24.498341270417098
1047,24.787094913662697
1087,25.11364996703537
1127,24.36512663367152
1167,23.671711710226565
1207,23.98114269723808
1247,24.23226762407727
1287,24.000000000000005
1327,24.000000000000019
1367,24.000000000000019
1407,23.228918987388629
1447,24.162304674868737
1487,22.842872631143178
1527,24.00000000000001
1567,24.585505352070908
1607,24.33000035403285
1647,23.18896200174684
1687,21.483277610833424
2,1, 7,21, 0, 7, 0.00,10.00,SummerDesignDay
8,13.572736920571789
10,43822135.30909486
1801,0.0
1838,113521023.55752322
2,1, 7,21, 0, 7,10.00,20.00,SummerDesignDay
8,13.627748229152554
10,43822135.30909486
1801,0.0
1838,57736246.374670248
2,1, 7,21, 0, 7,20.00,30.00,SummerDesignDay
8,13.682651961920304
10,43822135.30909486
1801,0.0
1838,73530881.30851729
2,1, 7,21, 0, 7,30.00,40.00,SummerDesignDay
8,13.737448093244995
10,43822135.30909486
1801,0.0
1838,70429100.95253466
2,1, 7,21, 0, 7,40.00,50.00,SummerDesignDay
8,13.792137011831216
10,43822135.30909486
1801,0.0
1838,72661375.0984078
2,1, 7,21, 0, 7,50.00,60.00,SummerDesignDay
8,13.846719282840333
10,43822135.30909486
1801,0.0
1838,74964690.37678272
2,1, 7,21, 0, 7, 0.00,60.00,SummerDesignDay
927,23.809015820179068
967,23.60859027596963
1007,23.97241876104235
1047,23.958223691542476
1087,23.94897970818754
1127,24.3448957303509
1167,23.6786494714306
1207,24.016181060256615
1247,25.789273821361804
1287,24.0
1327,24.00000000000001
1367,24.000000000000005
1407,23.653697405444377
1447,24.184560410262308
1487,23.318933652744279
1527,24.000000000000015
1567,23.968403317669467
1607,23.980690643533394
1647,23.23064657387252
1687,21.58638039396222
2,1, 7,21, 0, 8, 0.00,10.00,SummerDesignDay
8,13.978831900527043
10,82057754.60294417
1801,5802613.169641928
1838,146383128.0432232
2,1, 7,21, 0, 8,10.00,20.00,SummerDesignDay
8,14.110321014287419
10,82057754.60294417
1801,0.0
1838,115515615.74602644
2,1, 7,21, 0, 8,20.00,30.00,SummerDesignDay
8,14.241191509616986
10,82057754.60294417
1801,0.0
1838,141547613.01622013
2,1, 7,21, 0, 8,30.00,40.00,SummerDesignDay
8,14.371447531304272
10,82057754.60294417
1801,0.0
1838,136888659.39293749
2,1, 7,21, 0, 8,40.00,50.00,SummerDesignDay
8,14.501093766564925
10,82057754.60294417
1801,0.0
1838,143790643.98891676
2,1, 7,21, 0, 8,50.00,60.00,SummerDesignDay
8,14.630134792273804
10,82057754.60294417
1801,0.0
1838,154604159.43044729
2,1, 7,21, 0, 8, 0.00,60.00,SummerDesignDay
927,23.999999996180976
967,23.996191205966438
1007,24.000000000000005
1047,24.00000000000001
1087,24.000000000000005
1127,24.414679210052087
1167,23.772407123883743
1207,23.997688571940516
1247,23.947076913621687
1287,24.00000000000001
1327,24.00000000000001
1367,24.000000000000005
1407,24.573325590215466
1447,24.358426168930469
1487,23.9483392717372
1527,24.00000000000003
1567,24.000000000000005
1607,24.000000000000005
1647,23.74534182530743
1687,22.446595514065494
2,1, 7,21, 0, 9, 0.00,10.00,SummerDesignDay
8,14.773641492809972
10,175986035.40473504
1801,0.0
1838,225053253.3606499
2,1, 7,21, 0, 9,10.00,20.00,SummerDesignDay
8,14.91640948124148
10,175986035.40473504
1801,0.0
1838,226702950.93382169
2,1, 7,21, 0, 9,20.00,30.00,SummerDesignDay
8,15.05843890714102
10,175986035.40473504
1801,0.0
1838,243360512.23736928
2,1, 7,21, 0, 9,30.00,40.00,SummerDesignDay
8,15.199735893563798
10,175986035.40473504
1801,0.0
1838,259680701.46667607
2,1, 7,21, 0, 9,40.00,50.00,SummerDesignDay
8,15.340306256439395
10,175986035.40473504
1801,0.0
1838,270235702.5296741
2,1, 7,21, 0, 9,50.00,60.00,SummerDesignDay
8,15.48015101768072
10,175986035.40473504
1801,0.0
1838,280925171.5191384
2,1, 7,21, 0, 9, 0.00,60.00,SummerDesignDay
927,24.000000000000015
967,23.999999999999987
1007,24.000000000000015
1047,24.000000000000005
1087,24.00000000000001
1127,23.986527302974296
1167,23.994177657699735
1207,23.999999999999998
1247,23.99999999985643
1287,24.0
1327,24.000000000000015
1367,24.000000000000005
1407,25.975308918996047
1447,23.990332774677076
1487,23.999999999895637
1527,24.000000000000005
1567,24.00000000000001
1607,24.0
1647,23.999997181786737
1687,23.806548320976856
2,1, 7,21, 0,10, 0.00,10.00,SummerDesignDay
8,15.60467292907716
10,220108168.20286495
1801,0.0
1838,323538558.77696737
2,1, 7,21, 0,10,10.00,20.00,SummerDesignDay
8,15.72862731650033
10,220108168.20286495
1801,0.0
1838,336611571.0430742
2,1, 7,21, 0,10,20.00,30.00,SummerDesignDay
8,15.852017409284228
10,220108168.20286495
1801,0.0
1838,347315919.29146566
2,1, 7,21, 0,10,30.00,40.00,SummerDesignDay
8,15.974848118364367
10,220108168.20286495
1801,0.0
1838,357705811.19193437
2,1, 7,21, 0,10,40.00,50.00,SummerDesignDay
8,16.097123145563505
10,220108168.20286495
1801,0.0
1838,367183806.21937146
2,1, 7,21, 0,10,50.00,60.00,SummerDesignDay
8,16.218846351168599
10,220108168.20286495
1801,0.0
1838,375921994.8552747
2,1, 7,21, 0,10, 0.00,60.00,SummerDesignDay
927,24.000000000000005
967,23.999999999999987
1007,24.00000000000001
1047,24.000000000000019
1087,23.999999999999998
1127,23.999999999999998
1167,24.000000000000005
1207,24.000000000000026
1247,24.00000000000003
1287,24.000000000000015
1327,24.000000000000019
1367,24.000000000000015
1407,27.801951487525185
1447,23.99999999999999
1487,24.000000000000015
1527,24.000000000000015
1567,24.000000000000019
1607,24.00000000000001
1647,24.000000000000044
1687,23.999999959191127
2,1, 7,21, 0,11, 0.00,10.00,SummerDesignDay
8,16.325793027093189
10,226925611.466939
1801,0.0
1838,388778373.3494224
2,1, 7,21, 0,11,10.00,20.00,SummerDesignDay
8,16.432322158488288
10,226925611.466939
1801,0.0
1838,396853549.9244869
2,1, 7,21, 0,11,20.00,30.00,SummerDesignDay
8,16.538424180249178
10,226925611.466939
1801,0.0
1838,404343206.4045788
2,1, 7,21, 0,11,30.00,40.00,SummerDesignDay
8,16.644108396469087
10,226925611.466939
1801,0.0
1838,411661132.86124268
2,1, 7,21, 0,11,40.00,50.00,SummerDesignDay
8,16.749376736593655
10,226925611.466939
1801,0.0
1838,418854497.91261669
2,1, 7,21, 0,11,50.00,60.00,SummerDesignDay
8,16.854232613237156
10,226925611.466939
1801,0.0
1838,426001249.5368482
2,1, 7,21, 0,11, 0.00,60.00,SummerDesignDay
927,24.000000000000015
967,24.000000000000033
1007,24.000000000000015
1047,24.00000000000001
1087,24.00000000000004
1127,24.000000000000005
1167,24.000000000000019
1207,24.000000000000015
1247,24.000000000000026
1287,24.000000000000026
1327,24.00000000000003
1367,24.000000000000026
1407,29.313342133053074
1447,24.000000000000015
1487,24.000000000000026
1527,24.000000000000015
1567,24.0
1607,24.000000000000005
1647,24.000000000000026
1687,24.000000000000005
2,1, 7,21, 0,12, 0.00,10.00,SummerDesignDay
8,16.92390823520069
10,230216209.08129043
1801,0.0
1838,435614027.23081859
2,1, 7,21, 0,12,10.00,20.00,SummerDesignDay
8,16.99340178950456
10,230216209.08129043
1801,0.0
1838,441358831.3635581
2,1, 7,21, 0,12,20.00,30.00,SummerDesignDay
8,17.06272006743463
10,230216209.08129043
1801,0.0
1838,447050253.27217146
2,1, 7,21, 0,12,30.00,40.00,SummerDesignDay
8,17.131853229172639
10,230216209.08129043
1801,0.0
1838,452763434.3647
2,1, 7,21, 0,12,40.00,50.00,SummerDesignDay
8,17.200807172194087
10,230216209.08129043
1801,0.0
1838,458502378.8095576
2,1, 7,21, 0,12,50.00,60.00,SummerDesignDay
8,17.269582116758607
10,230216209.08129043
1801,0.0
1838,464169464.80300346
2,1, 7,21, 0,12, 0.00,60.00,SummerDesignDay
927,24.00000000000004
967,24.00000000000003
1007,24.000000000000015
1047,24.00000000000001
1087,24.000000000000005
1127,24.000000000000005
1167,24.000000000000005
1207,24.00000000000001
1247,24.000000000000069
1287,24.0
1327,24.0
1367,24.00000000000001
1407,30.497862011320483
1447,24.00000000000001
1487,24.000000000000033
1527,24.000000000000019
1567,24.0
1607,24.000000000000005
1647,24.000000000000026
1687,24.000000000000033
2,1, 7,21, 0,13, 0.00,10.00,SummerDesignDay
8,17.32447360221357
10,229040593.86471627
1801,0.0
1838,467888363.67269417
2,1, 7,21, 0,13,10.00,20.00,SummerDesignDay
8,17.379251291230806
10,229040593.86471627
1801,0.0
1838,472335449.42070147
2,1, 7,21, 0,13,20.00,30.00,SummerDesignDay
8,17.433921312061729
10,229040593.86471627
1801,0.0
1838,476568694.71710339
2,1, 7,21, 0,13,30.00,40.00,SummerDesignDay
8,17.488473222557489
10,229040593.86471627
1801,0.0
1838,480799953.35136398
2,1, 7,21, 0,13,40.00,50.00,SummerDesignDay
8,17.542913447755134
10,229040593.86471627
1801,0.0
1838,484916428.60209676
2,1, 7,21, 0,13,50.00,60.00,SummerDesignDay
8,17.59724609886134
10,229040593.86471627
1801,0.0
1838,488818969.03679606
2,1, 7,21, 0,13, 0.00,60.00,SummerDesignDay
927,24.000000000000058
967,24.000000000000026
1007,24.00000000000001
1047,24.000000000000019
1087,24.00000000000003
1127,24.000000000000019
1167,24.0
1207,24.0
1247,24.000000000000044
1287,24.00000000000001
1327,24.000000000000015
1367,24.00000000000001
1407,31.33183359352256
1447,24.00000000000004
1487,24.000000000000055
1527,24.000000000000033
1567,24.000000000000033
1607,24.000000000000015
1647,24.000000000000033
1687,24.00000000000003
2,1, 7,21, 0,14, 0.00,10.00,SummerDesignDay
8,17.6311450462694
10,229040593.86471627
1801,0.0
1838,490585159.83647856
2,1, 7,21, 0,14,10.00,20.00,SummerDesignDay
8,17.665000449016245
10,229040593.86471627
1801,0.0
1838,493184765.13836458
2,1, 7,21, 0,14,20.00,30.00,SummerDesignDay
8,17.698812743128934
10,229040593.86471627
1801,0.0
1838,495782446.80602106
2,1, 7,21, 0,14,30.00,40.00,SummerDesignDay
8,17.732582050940107
10,229040593.86471627
1801,0.0
1838,498430298.3123009
2,1, 7,21, 0,14,40.00,50.00,SummerDesignDay
8,17.766307345121004
10,229040593.86471627
1801,0.0
1838,501133436.2832335
2,1, 7,21, 0,14,50.00,60.00,SummerDesignDay
8,17.79999023167558
10,229040593.86471627
1801,0.0
1838,503893263.93367388
2,1, 7,21, 0,14, 0.00,60.00,SummerDesignDay
927,24.0
967,23.999999999999959
1007,24.00000000000001
1047,24.000000000000033
1087,24.00000000000001
1127,24.000000000000005
1167,24.000000000000015
1207,24.00000000000001
1247,24.000000000000026
1287,24.00000000000003
1327,24.000000000000019
1367,24.00000000000001
1407,31.83239823648866
1447,24.00000000000001
1487,23.999999999999984
1527,24.000000000000019
1567,24.00000000000001
1607,24.000000000000019
1647,24.00000000000001
1687,24.0
2,1, 7,21, 0,15, 0.00,10.00,SummerDesignDay
8,17.79999023167558
10,229040593.86471627
1801,0.0
1838,692498971.4187292
2,1, 7,21, 0,15,10.00,20.00,SummerDesignDay
8,17.79999023167558
10,229040593.86471627
1801,0.0
1838,557960691.0235357
2,1, 7,21, 0,15,20.00,30.00,SummerDesignDay
8,17.79999023167558
10,229040593.86471627
1801,0.0
1838,590278071.6671094
2,1, 7,21, 0,15,30.00,40.00,SummerDesignDay
8,17.79999023167558
10,229040593.86471627
1801,0.0
1838,547080957.3789613
2,1, 7,21, 0,15,40.00,50.00,SummerDesignDay
8,17.79999023167558
10,229040593.86471627
1801,0.0
1838,547273332.9299445
2,1, 7,21, 0,15,50.00,60.00,SummerDesignDay
8,17.79999023167558
10,229040593.86471627
1801,0.0
1838,545768561.0671508
2,1, 7,21, 0,15, 0.00,60.00,SummerDesignDay
927,24.000000000000026
967,24.000000000000019
1007,24.000000000000015
1047,24.00000000000001
1087,24.000000000000015
1127,24.000000000000005
1167,23.999999999999998
1207,24.000000000000005
1247,24.000000000000069
1287,24.0
1327,24.00000000000001
1367,24.000000000000005
1407,23.917032427446217
1447,23.999999999999959
1487,23.999999999999959
1527,24.00000000000001
1567,24.00000000000003
1607,23.999999999999998
1647,24.000000000000005
1687,23.999999999999984
2,1, 7,21, 0,16, 0.00,10.00,SummerDesignDay
8,17.759562446305357
10,235569289.5324253
1801,0.0
1838,544460050.322658
2,1, 7,21, 0,16,10.00,20.00,SummerDesignDay
8,17.71907809634183
10,235569289.5324253
1801,0.0
1838,541531934.3506014
2,1, 7,21, 0,16,20.00,30.00,SummerDesignDay
8,17.67853788661001
10,235569289.5324253
1801,0.0
1838,537849846.7722406
2,1, 7,21, 0,16,30.00,40.00,SummerDesignDay
8,17.63791796367351
10,235569289.5324253
1801,0.0
1838,533894846.35526129
2,1, 7,21, 0,16,40.00,50.00,SummerDesignDay
8,17.59724609886134
10,235569289.5324253
1801,0.0
1838,529669197.9099075
2,1, 7,21, 0,16,50.00,60.00,SummerDesignDay
8,17.55650676726033
10,235569289.5324253
1801,0.0
1838,525197719.79560449
2,1, 7,21, 0,16, 0.00,60.00,SummerDesignDay
927,24.000000000000026
967,23.999999999999998
1007,24.0
1047,24.00000000000001
1087,24.0
1127,24.000000000000005
1167,24.0
1207,24.00000000000001
1247,24.000000000000019
1287,23.99999999999999
1327,24.00000000000001
1367,24.000000000000019
1407,23.99999999999997
1447,23.99999999999999
1487,24.00000000000009
1527,23.99999999999999
1567,24.00000000000003
1607,24.00000000000001
1647,24.000000000000026
1687,23.999999999999998
2,1, 7,21, 0,17, 0.00,10.00,SummerDesignDay
8,17.50209486331892
10,229415590.74719186
1801,0.0
1838,514844667.07667186
2,1, 7,21, 0,17,10.00,20.00,SummerDesignDay
8,17.447570789624618
10,229415590.74719186
1801,0.0
1838,508723894.2665605
2,1, 7,21, 0,17,20.00,30.00,SummerDesignDay
8,17.392929544208135
10,229415590.74719186
1801,0.0
1838,502803793.8490964
2,1, 7,21, 0,17,30.00,40.00,SummerDesignDay
8,17.33818013976614
10,229415590.74719186
1801,0.0
1838,496787508.12531796
2,1, 7,21, 0,17,40.00,50.00,SummerDesignDay
8,17.283317298559309
10,229415590.74719186
1801,0.0
1838,490702584.69747099
2,1, 7,21, 0,17,50.00,60.00,SummerDesignDay
8,17.22833552437677
10,229415590.74719186
1801,0.0
1838,484520685.4436301
2,1, 7,21, 0,17, 0.00,60.00,SummerDesignDay
927,24.000000000000026
967,24.00000000000003
1007,24.000000000000019
1047,24.000000000000026
1087,24.000000000000044
1127,24.000000000000019
1167,24.00000000000001
1207,24.00000000000001
1247,23.999999999999998
1287,24.000000000000026
1327,24.000000000000005
1367,23.999999999999987
1407,24.000000000000015
1447,24.000000000000026
1487,24.000000000000097
1527,24.000000000000044
1567,24.000000000000019
1607,24.000000000000019
1647,24.00000000000003
1687,24.0
2,1, 7,21, 0,18, 0.00,10.00,SummerDesignDay
8,17.159453019160176
10,211533864.5655728
1801,0.0
1838,466763916.80155256
2,1, 7,21, 0,18,10.00,20.00,SummerDesignDay
8,17.090391773337136
10,211533864.5655728
1801,0.0
1838,458566166.94574436
2,1, 7,21, 0,18,20.00,30.00,SummerDesignDay
8,17.021151077964786
10,211533864.5655728
1801,0.0
1838,450860711.32270666
2,1, 7,21, 0,18,30.00,40.00,SummerDesignDay
8,16.951729380464653
10,211533864.5655728
1801,0.0
1838,443223841.61551687
2,1, 7,21, 0,18,40.00,50.00,SummerDesignDay
8,16.882126503829249
10,211533864.5655728
1801,0.0
1838,435724203.3793298
2,1, 7,21, 0,18,50.00,60.00,SummerDesignDay
8,16.812341807494034
10,211533864.5655728
1801,0.0
1838,428291090.5437415
2,1, 7,21, 0,18, 0.00,60.00,SummerDesignDay
927,24.00000000000003
967,24.000000000000026
1007,24.00000000000003
1047,23.99999999999999
1087,24.0
1127,24.000000000000026
1167,24.000000000000005
1207,24.00000000000001
1247,24.000000000000015
1287,24.000000000000019
1327,24.000000000000019
1367,24.000000000000015
1407,24.000000000000026
1447,24.00000000000004
1487,24.00000000000004
1527,24.00000000000001
1567,24.000000000000026
1607,24.000000000000019
1647,24.0
1687,24.000000000000019
2,1, 7,21, 0,19, 0.00,10.00,SummerDesignDay
8,16.707321072823203
10,162461772.96006669
1801,0.0
1838,393890973.2771459
2,1, 7,21, 0,19,10.00,20.00,SummerDesignDay
8,16.601881826644556
10,162461772.96006669
1801,0.0
1838,382923252.7058505
2,1, 7,21, 0,19,20.00,30.00,SummerDesignDay
8,16.496030555252849
10,162461772.96006669
1801,0.0
1838,373474595.35090497
2,1, 7,21, 0,19,30.00,40.00,SummerDesignDay
8,16.389760181474104
10,162461772.96006669
1801,0.0
1838,363920830.82519039
2,1, 7,21, 0,19,40.00,50.00,SummerDesignDay
8,16.283067654262039
10,162461772.96006669
1801,0.0
1838,354503278.64636299
2,1, 7,21, 0,19,50.00,60.00,SummerDesignDay
8,16.17595057957811
10,162461772.96006669
1801,0.0
1838,345263043.15371868
2,1, 7,21, 0,19, 0.00,60.00,SummerDesignDay
927,24.0
967,24.000000000000026
1007,24.000000000000005
1047,23.99999999999999
1087,23.999999999999987
1127,24.00000000000001
1167,24.000000000000015
1207,23.99999999999999
1247,24.000000000000005
1287,24.000000000000019
1327,24.00000000000001
1367,24.000000000000019
1407,24.00000000000003
1447,24.00000000000007
1487,24.000000000000026
1527,24.000000000000026
1567,24.0
1607,24.000000000000019
1647,24.000000000000019
1687,24.0
2,1, 7,21, 0,20, 0.00,10.00,SummerDesignDay
8,16.097123145563505
10,146568467.7285318
1801,0.0
1838,319808125.5964591
2,1, 7,21, 0,20,10.00,20.00,SummerDesignDay
8,16.018070242471564
10,146568467.7285318
1801,0.0
1838,312814496.7519319
2,1, 7,21, 0,20,20.00,30.00,SummerDesignDay
8,15.938779752340516
10,146568467.7285318
1801,0.0
1838,305939573.8779988
2,1, 7,21, 0,20,30.00,40.00,SummerDesignDay
8,15.85926152575189
10,146568467.7285318
1801,0.0
1838,298818480.837234
2,1, 7,21, 0,20,40.00,50.00,SummerDesignDay
8,15.779503718563929
10,146568467.7285318
1801,0.0
1838,291397890.86298736
2,1, 7,21, 0,20,50.00,60.00,SummerDesignDay
8,15.699515709672767
10,146568467.7285318
1801,0.0
1838,283704555.33776208
2,1, 7,21, 0,20, 0.00,60.00,SummerDesignDay
927,24.000000000000019
967,24.00000000000001
1007,24.000000000000015
1047,24.0
1087,24.000000000000026
1127,24.00000000000001
1167,24.0
1207,24.000000000000005
1247,25.323691705207243
1287,24.000000000000005
1327,24.00000000000001
1367,23.999999999999998
1407,24.00000000000001
1447,23.99999999999999
1487,24.00000000000003
1527,24.00000000000003
1567,24.0
1607,24.0
1647,24.000000000000026
1687,23.99999999999999
2,1, 7,21, 0,21, 0.00,10.00,SummerDesignDay
8,15.63389147320404
10,147519084.8172191
1801,0.0
1838,277101918.00501576
2,1, 7,21, 0,21,10.00,20.00,SummerDesignDay
8,15.56810827419793
10,147519084.8172191
1801,0.0
1838,269283062.66931006
2,1, 7,21, 0,21,20.00,30.00,SummerDesignDay
8,15.502170882753524
10,147519084.8172191
1801,0.0
1838,261176584.5495264
2,1, 7,21, 0,21,30.00,40.00,SummerDesignDay
8,15.436068032613852
10,147519084.8172191
1801,0.0
1838,252971367.35095329
2,1, 7,21, 0,21,40.00,50.00,SummerDesignDay
8,15.369804371206009
10,147519084.8172191
1801,0.0
1838,245364900.4593971
2,1, 7,21, 0,21,50.00,60.00,SummerDesignDay
8,15.303384603594449
10,147519084.8172191
1801,0.0
1838,237409898.771446
2,1, 7,21, 0,21, 0.00,60.00,SummerDesignDay
927,24.000000000000015
967,23.999999999999998
1007,24.000000000000019
1047,24.000000000000015
1087,24.000000000000019
1127,24.00000000000001
1167,24.00000000000001