Program Version,EnergyPlus, Version 8.9.0-eba93e8e1b, YMD=2019.03.08 20:30
1,5,Environment Title[],Latitude[deg],Longitude[deg],Time Zone[],Elevation[m]
2,8,Day of Simulation[],Month[],Day of Month[],DST Indicator[1=yes 0=no],Hour[],StartMinute[],EndMinute[],DayType
3,5,Cumulative Day of Simulation[],Month[],Day of Month[],DST Indicator[1=yes 0=no],DayType  ! When Daily Report Variables Requested
4,2,Cumulative Days of Simulation[],Month[]  ! When Monthly Report Variables Requested
5,1,Cumulative Days of Simulation[] ! When Run Period Report Variables Requested
6,1,Calendar Year of Simulation[] ! When Annual Report Variables Requested
7,9,Environment,Site Outdoor Air Drybulb Temperature [C] !Monthly [Value,Min,Day,Hour,Minute,Max,Day,Hour,Minute]
8,1,Environment,Site Outdoor Air Wetbulb Temperature [C] !TimeStep
888,1,MFG - DETAILED-SPACE FUNCTION ZN,Zone Air Temperature [C] !Hourly
889,7,MFG - DETAILED-SPACE FUNCTION ZN,Zone Air Relative Humidity [%] !Daily [Value,Min,Hour,Minute,Max,Hour,Minute]
928,1,MFG - EQUIPMENT-SPACE FUNCTION ZN,Zone Air Temperature [C] !Hourly
929,7,MFG - EQUIPMENT-SPACE FUNCTION ZN,Zone Air Relative Humidity [%] !Daily [Value,Min,Hour,Minute,Max,Hour,Minute]
968,1,MUSEUM - EXHIBITION-SPACE FUNCTION ZN,Zone Air Temperature [C] !Hourly
969,7,MUSEUM - EXHIBITION-SPACE FUNCTION ZN,Zone Air Relative Humidity [%] !Daily [Value,Min,Hour,Minute,Max,Hour,Minute]
1008,1,MUSEUM - RESTORATION-SPACE FUNCTION ZN,Zone Air Temperature [C] !Hourly
1009,7,MUSEUM - RESTORATION-SPACE FUNCTION ZN,Zone Air Relative Humidity [%] !Daily [Value,Min,Hour,Minute,Max,Hour,Minute]
1048,1,OFFICE - ENCLOSED - OCCSENS-SPACE FUNCTION ZN,Zone Air Temperature [C] !Hourly
1049,7,OFFICE - ENCLOSED - OCCSENS-SPACE FUNCTION ZN,Zone Air Relative Humidity [%] !Daily [Value,Min,Hour,Minute,Max,Hour,Minute]
1088,1,OFFICE - ENCLOSED-SPACE FUNCTION ZN,Zone Air Temperature [C] !Hourly
1089,7,OFFICE - ENCLOSED-SPACE FUNCTION ZN,Zone Air Relative Humidity [%] !Daily [Value,Min,Hour,Minute,Max,Hour,Minute]
1128,1,OFFICE - OPEN PLAN-SPACE FUNCTION ZN,Zone Air Temperature [C] !Hourly
1129,7,OFFICE - OPEN PLAN-SPACE FUNCTION ZN,Zone Air Relative Humidity [%] !Daily [Value,Min,Hour,Minute,Max,Hour,Minute]
1168,1,PARKING GARAGE SPACE-SPACE FUNCTION ZN,Zone Air Temperature [C] !Hourly
1169,7,PARKING GARAGE SPACE-SPACE FUNCTION ZN,Zone Air Relative Humidity [%] !Daily [Value,Min,Hour,Minute,Max,Hour,Minute]
1208,1,PENITENTIARY - AUDIENCE-SPACE FUNCTION ZN,Zone Air Temperature [C] !Hourly
1209,7,PENITENTIARY - AUDIENCE-SPACE FUNCTION ZN,Zone Air Relative Humidity [%] !Daily [Value,Min,Hour,Minute,Max,Hour,Minute]
1248,1,PENITENTIARY - CLASSROOM-SPACE FUNCTION ZN,Zone Air Temperature [C] !Hourly
1249,7,PENITENTIARY - CLASSROOM-SPACE FUNCTION ZN,Zone Air Relative Humidity [%] !Daily [Value,Min,Hour,Minute,Max,Hour,Minute]
1288,1,PENITENTIARY - DINING-SPACE FUNCTION ZN,Zone Air Temperature [C] !Hourly
1289,7,PENITENTIARY - DINING-SPACE FUNCTION ZN,Zone Air Relative Humidity [%] !Daily [Value,Min,Hour,Minute,Max,Hour,Minute]
1328,1,POST OFFICE SORTING-SPACE FUNCTION ZN,Zone Air Temperature [C] !Hourly
1329,7,POST OFFICE SORTING-SPACE FUNCTION ZN,Zone Air Relative Humidity [%] !Daily [Value,Min,Hour,Minute,Max,Hour,Minute]
1368,1,RELIGIOUS - AUDIENCE-SPACE FUNCTION ZN,Zone Air Temperature [C] !Hourly
1369,7,RELIGIOUS - AUDIENCE-SPACE FUNCTION ZN,Zone Air Relative Humidity [%] !Daily [Value,Min,Hour,Minute,Max,Hour,Minute]
1408,1,RELIGIOUS - FELLOWSHIP HALL-SPACE FUNCTION ZN,Zone Air Temperature [C] !Hourly
1409,7,RELIGIOUS - FELLOWSHIP HALL-SPACE FUNCTION ZN,Zone Air Relative Humidity [%] !Daily [Value,Min,Hour,Minute,Max,Hour,Minute]
1448,1,RELIGIOUS - PULPIT/CHOIR-SPACE FUNCTION ZN,Zone Air Temperature [C] !Hourly
1449,7,RELIGIOUS - PULPIT/CHOIR-SPACE FUNCTION ZN,Zone Air Relative Humidity [%] !Daily [Value,Min,Hour,Minute,Max,Hour,Minute]
1488,1,RETAIL - DRESSING/FITTING-SPACE FUNCTION ZN,Zone Air Temperature [C] !Hourly
1489,7,RETAIL - DRESSING/FITTING-SPACE FUNCTION ZN,Zone Air Relative Humidity [%] !Daily [Value,Min,Hour,Minute,Max,Hour,Minute]
1528,1,RETAIL - MALL CONCOURSE-SPACE FUNCTION ZN,Zone Air Temperature [C] !Hourly
1529,7,RETAIL - MALL CONCOURSE-SPACE FUNCTION ZN,Zone Air Relative Humidity [%] !Daily [Value,Min,Hour,Minute,Max,Hour,Minute]
1568,1,RETAIL - SALES-SPACE FUNCTION ZN,Zone Air Temperature [C] !Hourly
1569,7,RETAIL - SALES-SPACE FUNCTION ZN,Zone Air Relative Humidity [%] !Daily [Value,Min,Hour,Minute,Max,Hour,Minute]
1608,1,SALES AREA-SPACE FUNCTION ZN,Zone Air Temperature [C] !Hourly
1609,7,SALES AREA-SPACE FUNCTION ZN,Zone Air Relative Humidity [%] !Daily [Value,Min,Hour,Minute,Max,Hour,Minute]
1648,1,SPORTS ARENA - AUDIENCE-SPACE FUNCTION ZN,Zone Air Temperature [C] !Hourly
1649,7,SPORTS ARENA - AUDIENCE-SPACE FUNCTION ZN,Zone Air Relative Humidity [%] !Daily [Value,Min,Hour,Minute,Max,Hour,Minute]
10,1,Electricity:Facility [J] !TimeStep
1799,1,DistrictCooling:Facility [J] !TimeStep
1762,1,DistrictHeating:Facility [J] !TimeStep
End of Data Dictionary
1,FORT MCMURRAY AP ANN CLG .4% CONDNS DB=>MWB,  56.65,-111.22,  -7.00, 369.10
2,1, 7,21, 0, 1, 0.00,10.00,SummerDesignDay
8,14.218136923962174
10,63917843.034818898
1762,13778634.872265423
1799,0.0
2,1, 7,21, 0, 1,10.00,20.00,SummerDesignDay
8,14.171982153293495
10,63917843.034818898
1762,15210379.618583357
1799,0.0
2,1, 7,21, 0, 1,20.00,30.00,SummerDesignDay
8,14.125744780286427
10,63917843.034818898
1762,16617722.54668549
1799,0.0
2,1, 7,21, 0, 1,30.00,40.00,SummerDesignDay
8,14.079436086331978
10,63917843.034818898
1762,18022957.197544058
1799,0.0
2,1, 7,21, 0, 1,40.00,50.00,SummerDesignDay
8,14.033050387896898
10,63917843.034818898
1762,19426818.76797822
1799,0.0
2,1, 7,21, 0, 1,50.00,60.00,SummerDesignDay
8,13.986581233564835
10,63917843.034818898
1762,20830207.971404606
1799,0.0
2,1, 7,21, 0, 1, 0.00,60.00,SummerDesignDay
888,22.146843339790125
928,22.896995430602006
968,21.534875002349897
1008,22.66518754509063
1048,24.84271493819591
1088,24.498444419077374
1128,25.626398279067986
1168,22.418614525777867
1208,22.591832637929273
1248,21.831470171285259
1288,22.511429064912197
1328,24.38033770276783
1368,22.352651233570574
1408,21.066025791444603
1448,22.47375046042032
1488,22.38903528748232
1528,23.187137184694384
1568,23.14977681921283
1608,24.514534734587956
1648,22.000002810322618
2,1, 7,21, 0, 2, 0.00,10.00,SummerDesignDay
8,13.95555882260429
10,37105566.18521312
1762,26350470.186979224
1799,0.0
2,1, 7,21, 0, 2,10.00,20.00,SummerDesignDay
8,13.924507755336454
10,37105566.18521312
1762,28841202.658259464
1799,0.0
2,1, 7,21, 0, 2,20.00,30.00,SummerDesignDay
8,13.893416042989206
10,37105566.18521312
1762,30859645.502042626
1799,0.0
2,1, 7,21, 0, 2,30.00,40.00,SummerDesignDay
8,13.862289589689029
10,37105566.18521312
1762,32969657.392524654
1799,0.0
2,1, 7,21, 0, 2,40.00,50.00,SummerDesignDay
8,13.831134407608739
10,37105566.18521312
1762,34354827.74046872
1799,0.0
2,1, 7,21, 0, 2,50.00,60.00,SummerDesignDay
8,13.799938415548118
10,37105566.18521312
1762,36023976.340141389
1799,0.0
2,1, 7,21, 0, 2, 0.00,60.00,SummerDesignDay
888,21.72981986481352
928,22.464648097319324
968,21.05287741433591
1008,22.235473773988699
1048,24.624139385455199
1088,24.10319213067177
1128,25.390708222926745
1168,22.02702151158033
1208,22.219487679926276
1248,21.419130491290404
1288,22.026341233995909
1328,24.160461504977304
1368,21.320528409101248
1408,20.654910946494885
1448,21.446822309111398
1488,22.097575089165763
1528,22.844889855659188
1568,22.85634974992659
1608,24.181005428499817
1648,22.000000000216237
2,1, 7,21, 0, 3, 0.00,10.00,SummerDesignDay
8,13.776521671948676
10,28720635.972488099
1762,0.0
1799,0.0
2,1, 7,21, 0, 3,10.00,20.00,SummerDesignDay
8,13.753085235778466
10,28720635.972488099
1762,0.0
1799,0.0
2,1, 7,21, 0, 3,20.00,30.00,SummerDesignDay
8,13.729636002354969
10,28720635.972488099
1762,0.0
1799,0.0
2,1, 7,21, 0, 3,30.00,40.00,SummerDesignDay
8,13.706147375533054
10,28720635.972488099
1762,0.0
1799,0.0
2,1, 7,21, 0, 3,40.00,50.00,SummerDesignDay
8,13.682651961920304
10,28720635.972488099
1762,0.0
1799,0.0
2,1, 7,21, 0, 3,50.00,60.00,SummerDesignDay
8,13.659136670643687
10,28720635.972488099
1762,0.0
1799,0.0
2,1, 7,21, 0, 3, 0.00,60.00,SummerDesignDay
888,21.40673261459884
928,22.12634792066882
968,20.67340236512094
1008,21.890682370086315
1048,24.43207845364114
1088,23.7765865250358
1128,25.1832475668387
1168,21.70392848267922
1208,21.91463862995091
1248,21.09619965056486
1288,21.28003705969599
1328,23.953830161036789
1368,20.80256384915278
1408,20.338228065946095
1448,20.93799882703956
1488,21.86189690142768
1528,22.56006772393799
1568,22.605238257473315
1608,23.89560650975639
1648,20.23422813708601
2,1, 7,21, 0, 4, 0.00,10.00,SummerDesignDay
8,13.63560137410855
10,28720635.972488099
1762,0.0
1799,0.0
2,1, 7,21, 0, 4,10.00,20.00,SummerDesignDay
8,13.612040802606578
10,28720635.972488099
1762,0.0
1799,0.0
2,1, 7,21, 0, 4,20.00,30.00,SummerDesignDay
8,13.58846620506876
10,28720635.972488099
1762,0.0
1799,0.0
2,1, 7,21, 0, 4,30.00,40.00,SummerDesignDay
8,13.56487178447336
10,28720635.972488099
1762,0.0
1799,0.0
2,1, 7,21, 0, 4,40.00,50.00,SummerDesignDay
8,13.541257354069103
10,28720635.972488099
1762,0.0
1799,0.0
2,1, 7,21, 0, 4,50.00,60.00,SummerDesignDay
8,13.517617463812285
10,28720635.972488099
1762,0.0
1799,0.0
2,1, 7,21, 0, 4, 0.00,60.00,SummerDesignDay
888,21.079121207138525
928,21.78505606637957
968,20.294597766104429
1008,21.528736842796957
1048,24.192814376461553
1088,23.419646267051577
1128,24.94205808805975
1168,21.366564825918038
1208,21.600374589388314
1248,20.77955199849432
1288,20.739356628978574
1328,23.706241708038033
1368,20.44627462348984
1408,20.03249909787069
1448,20.599047834667414
1488,21.61081041188537
1528,22.256135262054089
1568,22.324679061479104
1608,23.58765238263845
1648,19.527730112619556
2,1, 7,21, 0, 5, 0.00,10.00,SummerDesignDay
8,13.50185415824011
10,28720635.972488099
1762,0.0
1799,0.0
2,1, 7,21, 0, 5,10.00,20.00,SummerDesignDay
8,13.486076034032447
10,28720635.972488099
1762,0.0
1799,0.0
2,1, 7,21, 0, 5,20.00,30.00,SummerDesignDay
8,13.470289340350983
10,28720635.972488099
1762,0.0
1799,0.0
2,1, 7,21, 0, 5,30.00,40.00,SummerDesignDay
8,13.454493322631063
10,28720635.972488099
1762,0.0
1799,0.0
2,1, 7,21, 0, 5,40.00,50.00,SummerDesignDay
8,13.438688835118548
10,28720635.972488099
1762,0.0
1799,0.0
2,1, 7,21, 0, 5,50.00,60.00,SummerDesignDay
8,13.422888173889437
10,28720635.972488099
1762,0.0
1799,0.0
2,1, 7,21, 0, 5, 0.00,60.00,SummerDesignDay
888,20.85801521009014
928,21.565620346761408
968,20.226927338876178
1008,21.413651969516964
1048,23.970244349791757
1088,23.185010037393146
1128,24.735240584041845
1168,21.164439862541227
1208,21.385541684748998
1248,20.512185724884579
1288,20.520637903384853
1328,23.49780423042733
1368,20.146854721980703
1408,19.775780526494669
1448,20.319792544942698
1488,21.390928324960059
1528,22.000783127863654
1568,22.146702204187446
1608,23.324293602230456
1648,19.24900323933683
2,1, 7,21, 0, 6, 0.00,10.00,SummerDesignDay
8,13.438688835118548
10,28720635.972488099
1762,0.0
1799,0.0
2,1, 7,21, 0, 6,10.00,20.00,SummerDesignDay
8,13.454493322631063
10,28720635.972488099
1762,0.0
1799,0.0
2,1, 7,21, 0, 6,20.00,30.00,SummerDesignDay
8,13.470289340350983
10,28720635.972488099
1762,0.0
1799,0.0
2,1, 7,21, 0, 6,30.00,40.00,SummerDesignDay
8,13.486076034032447
10,28720635.972488099
1762,0.0
1799,0.0
2,1, 7,21, 0, 6,40.00,50.00,SummerDesignDay
8,13.50185415824011
10,28720635.972488099
1762,0.0
1799,0.0
2,1, 7,21, 0, 6,50.00,60.00,SummerDesignDay
8,13.517617463812285
10,28720635.972488099
1762,0.0
1799,0.0
2,1, 7,21, 0, 6, 0.00,60.00,SummerDesignDay
888,20.921214934074464
928,21.66194050253787
968,21.083958777299629
1008,21.74196267585565
1048,23.789615199915315
1088,23.26127126663891
1128,24.590533263760805
1168,21.371731437565815
1208,21.325903591796775
1248,20.3739924413774
1288,20.691164339423556
1328,23.36975243874298
1368,20.000826244416044
1408,19.66646446795576
1448,20.185584945895028
1488,21.245294583036608
1528,21.856716967065599
1568,22.097399089909488
1608,23.153242152441327
1648,19.163348204382534
2,1, 7,21, 0, 7, 0.00,10.00,SummerDesignDay
8,13.572736920571789
10,28720635.972488099
1762,0.0
1799,11791335.481150985
2,1, 7,21, 0, 7,10.00,20.00,SummerDesignDay
8,13.627748229152554
10,28720635.972488099
1762,0.0
1799,0.0
2,1, 7,21, 0, 7,20.00,30.00,SummerDesignDay
8,13.682651961920304
10,28720635.972488099
1762,0.0
1799,0.0
2,1, 7,21, 0, 7,30.00,40.00,SummerDesignDay
8,13.737448093244995
10,28720635.972488099
1762,0.0
1799,6131893.227106392
2,1, 7,21, 0, 7,40.00,50.00,SummerDesignDay
8,13.792137011831216
10,28720635.972488099
1762,0.0
1799,3153698.729814645
2,1, 7,21, 0, 7,50.00,60.00,SummerDesignDay
8,13.846719282840333
10,28720635.972488099
1762,0.0
1799,3447716.8555806109
2,1, 7,21, 0, 7, 0.00,60.00,SummerDesignDay
888,21.347364148510964
928,22.127369214165367
968,22.25768572873167
1008,22.065064719413074
1048,23.709762462767018
1088,23.650584841823318
1128,23.93974247026058
1168,21.81707858626045
1208,21.373180593376465
1248,20.493715572650577
1288,21.10960454789509
1328,23.375585837020269
1368,20.15663310184717
1408,19.84218010326354
1448,20.333677870997659
1488,21.263977613498164
1528,21.908961565636024
1568,22.068725481446906
1608,23.147687301937798
1648,19.42356181833725
2,1, 7,21, 0, 8, 0.00,10.00,SummerDesignDay
8,13.978831900527043
10,59408505.57415837
1762,5059394.152082845
1799,12034974.558403068
2,1, 7,21, 0, 8,10.00,20.00,SummerDesignDay
8,14.110321014287419
10,59408505.57415837
1762,0.0
1799,14463513.934365247
2,1, 7,21, 0, 8,20.00,30.00,SummerDesignDay
8,14.241191509616986
10,59408505.57415837
1762,0.0
1799,19004761.129961209
2,1, 7,21, 0, 8,30.00,40.00,SummerDesignDay
8,14.371447531304272
10,59408505.57415837
1762,0.0
1799,24616495.16661149
2,1, 7,21, 0, 8,40.00,50.00,SummerDesignDay
8,14.501093766564925
10,59408505.57415837
1762,0.0
1799,38681085.22254002
2,1, 7,21, 0, 8,50.00,60.00,SummerDesignDay
8,14.630134792273804
10,59408505.57415837
1762,0.0
1799,52596999.919518988
2,1, 7,21, 0, 8, 0.00,60.00,SummerDesignDay
888,22.91181380357101
928,23.55518497362269
968,23.691176263437879
1008,23.350869332706976
1048,23.959695893641926
1088,23.99992640693156
1128,23.999999997898216
1168,22.59942576228339
1208,21.802036263285858
1248,21.045119426974975
1288,21.91378094788618
1328,23.83372924027067
1368,20.80264810075516
1408,20.49280962228641
1448,20.95515309844338
1488,21.550319631478286
1528,22.284550908473745
1568,22.313297782352888
1608,23.404636806647578
1648,20.27329069991644
2,1, 7,21, 0, 9, 0.00,10.00,SummerDesignDay
8,14.773641492809972
10,191586655.50906635
1762,27040085.35814756
1799,136451295.02570323
2,1, 7,21, 0, 9,10.00,20.00,SummerDesignDay
8,14.91640948124148
10,191586655.50906635
1762,1198462.3562623857
1799,161754482.7199384
2,1, 7,21, 0, 9,20.00,30.00,SummerDesignDay
8,15.05843890714102
10,191586655.50906635
1762,3366616.7248657897
1799,178605831.66383709
2,1, 7,21, 0, 9,30.00,40.00,SummerDesignDay
8,15.199735893563798
10,191586655.50906635
1762,0.0
1799,191249876.2610097
2,1, 7,21, 0, 9,40.00,50.00,SummerDesignDay
8,15.340306256439395
10,191586655.50906635
1762,0.0
1799,204097419.38018606
2,1, 7,21, 0, 9,50.00,60.00,SummerDesignDay
8,15.48015101768072
10,191586655.50906635
1762,0.0
1799,219358213.9686397
2,1, 7,21, 0, 9, 0.00,60.00,SummerDesignDay
888,23.988589469054845
928,23.999999863205443
968,23.99999997032337
1008,23.99999669656449
1048,23.999999999999763
1088,23.999999999999969
1128,24.00000000000001
1168,23.57272649505167
1208,22.849524483030366
1248,22.466915388370564
1288,22.971986316304127
1328,23.999999976689496
1368,21.833411412771019
1408,22.246482930441478
1448,21.957082366291016
1488,22.485847934654414
1528,23.233714124806217
1568,23.31041700421764
1608,23.973355734541888
1648,21.578841975930378
2,1, 7,21, 0,10, 0.00,10.00,SummerDesignDay
8,15.60467292907716
10,272383483.06169548
1762,0.0
1799,269502631.9951245
2,1, 7,21, 0,10,10.00,20.00,SummerDesignDay
8,15.72862731650033
10,272383483.06169548
1762,0.0
1799,304108584.75051417
2,1, 7,21, 0,10,20.00,30.00,SummerDesignDay
8,15.852017409284228
10,272383483.06169548
1762,0.0
1799,337056323.96771267
2,1, 7,21, 0,10,30.00,40.00,SummerDesignDay
8,15.974848118364367
10,272383483.06169548
1762,0.0
1799,364045652.98856386
2,1, 7,21, 0,10,40.00,50.00,SummerDesignDay
8,16.097123145563505
10,272383483.06169548
1762,0.0
1799,392075250.49892416
2,1, 7,21, 0,10,50.00,60.00,SummerDesignDay
8,16.218846351168599
10,272383483.06169548
1762,0.0
1799,419485392.7088915
2,1, 7,21, 0,10, 0.00,60.00,SummerDesignDay
888,23.999999999999877
928,24.00000000000003
968,24.00000000000006
1008,24.000000000000033
1048,24.000000000000015
1088,24.000000000000026
1128,24.00000000000001
1168,23.999858815340148
1208,23.910513040371723
1248,23.920244631838889
1288,23.94500477590933
1328,24.00000000000001
1368,23.177916813436608
1408,23.567756000361645
1448,23.26968170870874
1488,23.69064450630374
1528,23.982590305873886
1568,23.99359147551512
1608,23.99999999999908
1648,23.305741985870715
2,1, 7,21, 0,11, 0.00,10.00,SummerDesignDay
8,16.325793027093189
10,276575948.168058
1762,0.0
1799,467499819.65450337
2,1, 7,21, 0,11,10.00,20.00,SummerDesignDay
8,16.432322158488288
10,276575948.168058
1762,0.0
1799,493170866.3306813
2,1, 7,21, 0,11,20.00,30.00,SummerDesignDay
8,16.538424180249178
10,276575948.168058
1762,0.0
1799,518206206.07814338
2,1, 7,21, 0,11,30.00,40.00,SummerDesignDay
8,16.644108396469087
10,276575948.168058
1762,0.0
1799,542847312.6097757
2,1, 7,21, 0,11,40.00,50.00,SummerDesignDay
8,16.749376736593655
10,276575948.168058
1762,0.0
1799,567180950.3741149
2,1, 7,21, 0,11,50.00,60.00,SummerDesignDay
8,16.854232613237156
10,276575948.168058
1762,0.0
1799,590192140.7772994
2,1, 7,21, 0,11, 0.00,60.00,SummerDesignDay
888,23.999999999999987
928,24.0
968,24.000000000000055
1008,24.00000000000006
1048,24.00000000000003
1088,24.0
1128,24.000000000000044
1168,23.99999999998978
1208,23.99999998333332
1248,23.999999951161376
1288,23.999999865428973
1328,24.000000000000047
1368,24.647905580431666
1408,23.999963046274318
1448,24.716406361330685
1488,23.999999939118
1528,23.99999999981795
1568,23.999999999995756
1608,24.00000000000003
1648,23.994822293118145
2,1, 7,21, 0,12, 0.00,10.00,SummerDesignDay
8,16.92390823520069
10,280768413.2744205
1762,0.0
1799,617636493.5644353
2,1, 7,21, 0,12,10.00,20.00,SummerDesignDay
8,16.99340178950456
10,280768413.2744205
1762,0.0
1799,634215822.99274
2,1, 7,21, 0,12,20.00,30.00,SummerDesignDay
8,17.06272006743463
10,280768413.2744205
1762,0.0
1799,650619533.9185038
2,1, 7,21, 0,12,30.00,40.00,SummerDesignDay
8,17.131853229172639
10,280768413.2744205
1762,0.0
1799,667014776.4895218
2,1, 7,21, 0,12,40.00,50.00,SummerDesignDay
8,17.200807172194087
10,280768413.2744205
1762,0.0
1799,683324482.3639702
2,1, 7,21, 0,12,50.00,60.00,SummerDesignDay
8,17.269582116758607
10,280768413.2744205
1762,0.0
1799,699331921.7017415
2,1, 7,21, 0,12, 0.00,60.00,SummerDesignDay
888,24.000000000000076
928,24.000000000000119
968,24.000000000000026
1008,24.000000000000026
1048,23.99999999999999
1088,24.00000000000003
1128,24.0
1168,23.999999999999998
1208,23.999999999999927
1248,23.99999999999883
1288,23.999999999991024
1328,23.999999999999998
1368,25.639254699442806
1408,23.999999997248268
1448,25.738802441805423
1488,23.999999999999984
1528,24.00000000000003
1568,24.000000000000026
1608,24.00000000000001
1648,23.999993177882034
2,1, 7,21, 0,13, 0.00,10.00,SummerDesignDay
8,17.32447360221357
10,280768413.2744205
1762,0.0
1799,724049270.5054056
2,1, 7,21, 0,13,10.00,20.00,SummerDesignDay
8,17.379251291230806
10,280768413.2744205
1762,0.0
1799,736178752.5889819
2,1, 7,21, 0,13,20.00,30.00,SummerDesignDay
8,17.433921312061729
10,280768413.2744205
1762,0.0
1799,747216787.2784958
2,1, 7,21, 0,13,30.00,40.00,SummerDesignDay
8,17.488473222557489
10,280768413.2744205
1762,0.0
1799,758159540.0625008
2,1, 7,21, 0,13,40.00,50.00,SummerDesignDay
8,17.542913447755134
10,280768413.2744205
1762,0.0
1799,769103991.1325815
2,1, 7,21, 0,13,50.00,60.00,SummerDesignDay
8,17.59724609886134
10,280768413.2744205
1762,0.0
1799,779928489.6707562
2,1, 7,21, 0,13, 0.00,60.00,SummerDesignDay
888,24.0
928,24.000000000000033
968,24.0
1008,24.000000000000019
1048,24.000000000000015
1088,23.999999999999998
1128,23.999999999999984
1168,24.0
1208,24.00000000000003
1248,24.000000000000019
1288,24.0
1328,24.000000000000019
1368,26.30376438049917
1408,23.99999999999981
1448,26.430970311728705
1488,24.00000000000001
1528,24.00000000000001
1568,24.00000000000001
1608,24.000000000000026
1648,23.999999992684605
2,1, 7,21, 0,14, 0.00,10.00,SummerDesignDay
8,17.6311450462694
10,280768413.2744205
1762,0.0
1799,784419371.031012
2,1, 7,21, 0,14,10.00,20.00,SummerDesignDay
8,17.665000449016245
10,280768413.2744205
1762,0.0
1799,791529437.8230118
2,1, 7,21, 0,14,20.00,30.00,SummerDesignDay
8,17.698812743128934
10,280768413.2744205
1762,0.0
1799,798626403.3048058
2,1, 7,21, 0,14,30.00,40.00,SummerDesignDay
8,17.732582050940107
10,280768413.2744205
1762,0.0
1799,805729202.4330542
2,1, 7,21, 0,14,40.00,50.00,SummerDesignDay
8,17.766307345121004
10,280768413.2744205
1762,0.0
1799,812406179.6451068
2,1, 7,21, 0,14,50.00,60.00,SummerDesignDay
8,17.79999023167558
10,280768413.2744205
1762,0.0
1799,819041134.6327944
2,1, 7,21, 0,14, 0.00,60.00,SummerDesignDay
888,24.000000000000058
928,24.000000000000058
968,24.000000000000047
1008,23.999999999999984
1048,24.000000000000019
1088,24.000000000000026
1128,24.000000000000069
1168,24.0
1208,24.00000000000004
1248,24.00000000000001
1288,23.99999999999999
1328,24.00000000000003
1368,26.798914157976339
1408,24.000000000000019
1448,26.95738521537398
1488,23.99999999999999
1528,23.999999999999998
1568,24.000000000000015
1608,24.00000000000003
1648,23.99999999999285
2,1, 7,21, 0,15, 0.00,10.00,SummerDesignDay
8,17.79999023167558
10,280768413.2744205
1762,0.0
1799,969014583.8077812
2,1, 7,21, 0,15,10.00,20.00,SummerDesignDay
8,17.79999023167558
10,280768413.2744205
1762,0.0
1799,825458409.4250082
2,1, 7,21, 0,15,20.00,30.00,SummerDesignDay
8,17.79999023167558
10,280768413.2744205
1762,0.0
1799,900510046.9073339
2,1, 7,21, 0,15,30.00,40.00,SummerDesignDay
8,17.79999023167558
10,280768413.2744205
1762,0.0
1799,908670252.0683736
2,1, 7,21, 0,15,40.00,50.00,SummerDesignDay
8,17.79999023167558
10,280768413.2744205
1762,0.0
1799,895893636.8873329
2,1, 7,21, 0,15,50.00,60.00,SummerDesignDay
8,17.79999023167558
10,280768413.2744205
1762,0.0
1799,899216307.090452
2,1, 7,21, 0,15, 0.00,60.00,SummerDesignDay
888,24.00000000000004
928,23.999999999999998
968,24.000000000000076
1008,24.000000000000033
1048,24.000000000000015
1088,24.000000000000058
1128,24.0
1168,23.99999999999999
1208,24.000000000000019
1248,24.00000000000001
1288,24.000000000000019
1328,24.000000000000005
1368,23.887151087155958
1408,24.00000000000001
1448,23.884200800588105
1488,24.000000000000015
1528,24.0
1568,23.99999999999999
1608,24.000000000000015
1648,24.0
2,1, 7,21, 0,16, 0.00,10.00,SummerDesignDay
8,17.759562446305357
10,299420758.0391882
1762,0.0
1799,896414553.3644056
2,1, 7,21, 0,16,10.00,20.00,SummerDesignDay
8,17.71907809634183
10,299420758.0391882
1762,0.0
1799,889377606.1971037
2,1, 7,21, 0,16,20.00,30.00,SummerDesignDay
8,17.67853788661001
10,299420758.0391882
1762,0.0
1799,880994600.9999672
2,1, 7,21, 0,16,30.00,40.00,SummerDesignDay
8,17.63791796367351
10,299420758.0391882
1762,0.0
1799,872163615.1587249
2,1, 7,21, 0,16,40.00,50.00,SummerDesignDay
8,17.59724609886134
10,299420758.0391882
1762,0.0
1799,862822168.0778896
2,1, 7,21, 0,16,50.00,60.00,SummerDesignDay
8,17.55650676726033
10,299420758.0391882
1762,0.0
1799,853083990.783208
2,1, 7,21, 0,16, 0.00,60.00,SummerDesignDay
888,24.000000000000019
928,24.000000000000076
968,24.00000000000004
1008,24.000000000000058
1048,24.00000000000001
1088,23.999999999999944
1128,24.000000000000033
1168,24.000000000000015
1208,23.99999999999996
1248,24.0
1288,23.999999999999984
1328,24.00000000000004
1368,23.999997870397054
1408,24.000000000000026
1448,23.999997990870129
1488,24.000000000000005
1528,24.00000000000003
1568,24.00000000000004
1608,23.999999999999998
1648,24.00000000000001
2,1, 7,21, 0,17, 0.00,10.00,SummerDesignDay
8,17.50209486331892
10,295055794.3673858
1762,0.0
1799,840768044.1337681
2,1, 7,21, 0,17,10.00,20.00,SummerDesignDay
8,17.447570789624618
10,295055794.3673858
1762,0.0
1799,827735653.3777393
2,1, 7,21, 0,17,20.00,30.00,SummerDesignDay
8,17.392929544208135
10,295055794.3673858
1762,0.0
1799,814563841.5895598
2,1, 7,21, 0,17,30.00,40.00,SummerDesignDay
8,17.33818013976614
10,295055794.3673858
1762,0.0
1799,800863006.197799
2,1, 7,21, 0,17,40.00,50.00,SummerDesignDay
8,17.283317298559309
10,295055794.3673858
1762,0.0
1799,786932253.5666102
2,1, 7,21, 0,17,50.00,60.00,SummerDesignDay
8,17.22833552437677
10,295055794.3673858
1762,0.0
1799,772792428.8432456
2,1, 7,21, 0,17, 0.00,60.00,SummerDesignDay
888,24.000000000000033
928,23.999999999999955
968,24.00000000000013
1008,24.000000000000019
1048,24.000000000000044
1088,24.00000000000003
1128,24.000000000000087
1168,24.00000000000001
1208,24.000000000000005
1248,24.000000000000005
1288,23.999999999999976
1328,24.00000000000001
1368,23.999999999873368
1408,23.999999999999998
1448,23.999999999890148
1488,23.99999999999999
1528,24.00000000000001
1568,24.000000000000047
1608,24.000000000000019
1648,24.000000000000015
2,1, 7,21, 0,18, 0.00,10.00,SummerDesignDay
8,17.159453019160176
10,280553165.06523916
1762,0.0
1799,737821339.3147646
2,1, 7,21, 0,18,10.00,20.00,SummerDesignDay
8,17.090391773337136
10,280553165.06523916
1762,0.0
1799,717766657.7565023
2,1, 7,21, 0,18,20.00,30.00,SummerDesignDay
8,17.021151077964786
10,280553165.06523916
1762,0.0
1799,698307239.6220697
2,1, 7,21, 0,18,30.00,40.00,SummerDesignDay
8,16.951729380464653
10,280553165.06523916
1762,0.0
1799,679037789.6774147
2,1, 7,21, 0,18,40.00,50.00,SummerDesignDay
8,16.882126503829249
10,280553165.06523916
1762,0.0
1799,659959685.6671512
2,1, 7,21, 0,18,50.00,60.00,SummerDesignDay
8,16.812341807494034
10,280553165.06523916
1762,0.0
1799,640990352.3782579
2,1, 7,21, 0,18, 0.00,60.00,SummerDesignDay
888,24.000000000000044
928,24.00000000000004
968,24.000000000000026
1008,24.000000000000019
1048,24.00000000000001
1088,24.00000000000003
1128,23.99999999999997
1168,24.00000000000004
1208,23.999999999999987
1248,24.000000000000005
1288,24.00000000000001
1328,24.000000000000015
1368,24.000000000000005
1408,23.99999999999994
1448,23.99999999999997
1488,24.00000000000001
1528,24.000000000000015
1568,24.00000000000001
1608,24.0
1648,24.000000000000005
2,1, 7,21, 0,19, 0.00,10.00,SummerDesignDay
8,16.707321072823203
10,242400232.59621004
1762,0.0
1799,589874193.1402717
2,1, 7,21, 0,19,10.00,20.00,SummerDesignDay
8,16.601881826644556
10,242400232.59621004
1762,0.0
1799,560279707.3292672
2,1, 7,21, 0,19,20.00,30.00,SummerDesignDay
8,16.496030555252849
10,242400232.59621004
1762,0.0
1799,532691047.39625337
2,1, 7,21, 0,19,30.00,40.00,SummerDesignDay
8,16.389760181474104
10,242400232.59621004
1762,0.0
1799,505556860.308573
2,1, 7,21, 0,19,40.00,50.00,SummerDesignDay
8,16.283067654262039
10,242400232.59621004
1762,0.0
1799,478829427.5903961
2,1, 7,21, 0,19,50.00,60.00,SummerDesignDay
8,16.17595057957811
10,242400232.59621004
1762,0.0
1799,452384420.2620331
2,1, 7,21, 0,19, 0.00,60.00,SummerDesignDay
888,24.00000000000003
928,23.99999999999999
968,24.00000000000001
1008,24.00000000000003
1048,24.000000000000019
1088,24.0
1128,24.000000000000033
1168,24.000000000000005
1208,23.999999999999998
1248,24.000000000000019
1288,24.000000000000019
1328,24.00000000000001
1368,24.000000000000005
1408,23.999999999999998
1448,23.999999999999984
1488,24.00000000000001
1528,24.0
1568,24.00000000000004
1608,24.000000000000026
1648,24.00000000000001
2,1, 7,21, 0,20, 0.00,10.00,SummerDesignDay
8,16.097123145563505
10,187020693.49875418
1762,0.0
1799,413785319.74975326
2,1, 7,21, 0,20,10.00,20.00,SummerDesignDay
8,16.018070242471564
10,187020693.49875418
1762,0.0
1799,390313784.44727399
2,1, 7,21, 0,20,20.00,30.00,SummerDesignDay
8,15.938779752340516
10,187020693.49875418
1762,0.0
1799,368733742.3730137
2,1, 7,21, 0,20,30.00,40.00,SummerDesignDay
8,15.85926152575189
10,187020693.49875418
1762,0.0
1799,346961790.4389141
2,1, 7,21, 0,20,40.00,50.00,SummerDesignDay
8,15.779503718563929
10,187020693.49875418
1762,0.0
1799,324915146.42953786
2,1, 7,21, 0,20,50.00,60.00,SummerDesignDay
8,15.699515709672767
10,187020693.49875418
1762,0.0
1799,302236006.4552911
2,1, 7,21, 0,20, 0.00,60.00,SummerDesignDay
888,24.000000000000019
928,24.000000000000019
968,24.000000000000026
1008,24.000000000000026
1048,24.000000000000019
1088,24.000000000000005
1128,24.000000000000019
1168,24.000000000000005
1208,24.000000000000026
1248,24.000000000000015
1288,23.999999999999998
1328,24.000000000000044
1368,24.000000000000019
1408,24.000000000000005
1448,24.00000000000001
1488,24.000000000000005
1528,24.000000000000033
1568,24.000000000000005
1608,24.000000000000015
1648,24.000000000000019
2,1, 7,21, 0,21, 0.00,10.00,SummerDesignDay
8,15.63389147320404
10,176061784.7066684
1762,0.0
1799,276624118.0342012
2,1, 7,21, 0,21,10.00,20.00,SummerDesignDay
8,15.56810827419793
10,176061784.7066684
1762,0.0
1799,255584797.48754383
2,1, 7,21, 0,21,20.00,30.00,SummerDesignDay
8,15.502170882753524
10,176061784.7066684
1762,0.0
1799,235642301.07019703
2,1, 7,21, 0,21,30.00,40.00,SummerDesignDay
8,15.436068032613852
10,176061784.7066684
1762,0.0
1799,217290423.07945044
2,1, 7,21, 0,21,40.00,50.00,SummerDesignDay
8,15.369804371206009
10,176061784.7066684
1762,0.0
1799,200759758.52876128
2,1, 7,21, 0,21,50.00,60.00,SummerDesignDay
8,15.303384603594449
10,176061784.7066684
1762,0.0
1799,183692664.52604587
2,1, 7,21, 0,21, 0.00,60.00,SummerDesignDay
888,24.00000000000001
928,24.000000000000005
968,24.000000000000005
1008,23.999999999999998
1048,24.00000000000001
1088,24.000000000000005