Program Version,EnergyPlus, Version 8.9.0-eba93e8e1b, YMD=2019.03.19 18:35
1,5,Environment Title[],Latitude[deg],Longitude[deg],Time Zone[],Elevation[m]
2,8,Day of Simulation[],Month[],Day of Month[],DST Indicator[1=yes 0=no],Hour[],StartMinute[],EndMinute[],DayType
3,5,Cumulative Day of Simulation[],Month[],Day of Month[],DST Indicator[1=yes 0=no],DayType  ! When Daily Report Variables Requested
4,2,Cumulative Days of Simulation[],Month[]  ! When Monthly Report Variables Requested
5,1,Cumulative Days of Simulation[] ! When Run Period Report Variables Requested
6,1,Calendar Year of Simulation[] ! When Annual Report Variables Requested
7,9,Environment,Site Outdoor Air Drybulb Temperature [C] !Monthly [Value,Min,Day,Hour,Minute,Max,Day,Hour,Minute]
8,1,Environment,Site Outdoor Air Wetbulb Temperature [C] !TimeStep
1073,1,ALL_ST=ATRIUM - H < 13M_FL=STORY 4_SCH=C,Zone Air Temperature [C] !Hourly
1074,7,ALL_ST=ATRIUM - H < 13M_FL=STORY 4_SCH=C,Zone Air Relative Humidity [%] !Daily [Value,Min,Hour,Minute,Max,Hour,Minute]
1113,1,ALL_ST=ATRIUM - H > 13M_FL=STORY 1_SCH=C,Zone Air Temperature [C] !Hourly
1114,7,ALL_ST=ATRIUM - H > 13M_FL=STORY 1_SCH=C,Zone Air Relative Humidity [%] !Daily [Value,Min,Hour,Minute,Max,Hour,Minute]
1153,1,ALL_ST=AUDIENCE - AUDITORIUM_FL=STORY 1_SCH=C,Zone Air Temperature [C] !Hourly
1154,7,ALL_ST=AUDIENCE - AUDITORIUM_FL=STORY 1_SCH=C,Zone Air Relative Humidity [%] !Daily [Value,Min,Hour,Minute,Max,Hour,Minute]
1193,1,ALL_ST=AUDIENCE - MOTION PICTURE_FL=STORY 2_SCH=C,Zone Air Temperature [C] !Hourly
1194,7,ALL_ST=AUDIENCE - MOTION PICTURE_FL=STORY 2_SCH=C,Zone Air Relative Humidity [%] !Daily [Value,Min,Hour,Minute,Max,Hour,Minute]
1233,1,ALL_ST=AUDIENCE - PERFORMANCE ARTS_FL=STORY 1_SCH=C,Zone Air Temperature [C] !Hourly
1234,7,ALL_ST=AUDIENCE - PERFORMANCE ARTS_FL=STORY 1_SCH=C,Zone Air Relative Humidity [%] !Daily [Value,Min,Hour,Minute,Max,Hour,Minute]
1273,1,ALL_ST=AUTOMOTIVE - REPAIR_FL=STORY 2_SCH=E,Zone Air Temperature [C] !Hourly
1274,7,ALL_ST=AUTOMOTIVE - REPAIR_FL=STORY 2_SCH=E,Zone Air Relative Humidity [%] !Daily [Value,Min,Hour,Minute,Max,Hour,Minute]
1313,1,ALL_ST=BANK - BANKING AND OFFICES_FL=STORY 1_SCH=A,Zone Air Temperature [C] !Hourly
1314,7,ALL_ST=BANK - BANKING AND OFFICES_FL=STORY 1_SCH=A,Zone Air Relative Humidity [%] !Daily [Value,Min,Hour,Minute,Max,Hour,Minute]
1353,1,ALL_ST=CLASSROOM/LECTURE/TRAINING_FL=STORY 4_SCH=D,Zone Air Temperature [C] !Hourly
1354,7,ALL_ST=CLASSROOM/LECTURE/TRAINING_FL=STORY 4_SCH=D,Zone Air Relative Humidity [%] !Daily [Value,Min,Hour,Minute,Max,Hour,Minute]
1393,1,ALL_ST=CONF./MEET./MULTI-PURPOSE_FL=STORY 2_SCH=C,Zone Air Temperature [C] !Hourly
1394,7,ALL_ST=CONF./MEET./MULTI-PURPOSE_FL=STORY 2_SCH=C,Zone Air Relative Humidity [%] !Daily [Value,Min,Hour,Minute,Max,Hour,Minute]
1433,1,ALL_ST=CONVENTION CENTRE - AUDIENCE_FL=STORY 3_SCH=C,Zone Air Temperature [C] !Hourly
1434,7,ALL_ST=CONVENTION CENTRE - AUDIENCE_FL=STORY 3_SCH=C,Zone Air Relative Humidity [%] !Daily [Value,Min,Hour,Minute,Max,Hour,Minute]
1473,1,ALL_ST=CONVENTION CENTRE - EXHIBIT_FL=STORY 2_SCH=C,Zone Air Temperature [C] !Hourly
1474,7,ALL_ST=CONVENTION CENTRE - EXHIBIT_FL=STORY 2_SCH=C,Zone Air Relative Humidity [%] !Daily [Value,Min,Hour,Minute,Max,Hour,Minute]
1513,1,ALL_ST=WHOLEBUILDING_FL=STORY 1_SCH=C,Zone Air Temperature [C] !Hourly
1514,7,ALL_ST=WHOLEBUILDING_FL=STORY 1_SCH=C,Zone Air Relative Humidity [%] !Daily [Value,Min,Hour,Minute,Max,Hour,Minute]
1553,1,ALL_ST=WHOLEBUILDING_FL=STORY 3_SCH=A,Zone Air Temperature [C] !Hourly
1554,7,ALL_ST=WHOLEBUILDING_FL=STORY 3_SCH=A,Zone Air Relative Humidity [%] !Daily [Value,Min,Hour,Minute,Max,Hour,Minute]
1593,1,ALL_ST=WHOLEBUILDING_FL=STORY 3_SCH=H,Zone Air Temperature [C] !Hourly
1594,7,ALL_ST=WHOLEBUILDING_FL=STORY 3_SCH=H,Zone Air Relative Humidity [%] !Daily [Value,Min,Hour,Minute,Max,Hour,Minute]
1633,1,ALL_ST=WHOLEBUILDING_FL=STORY 3_SCH=I,Zone Air Temperature [C] !Hourly
1634,7,ALL_ST=WHOLEBUILDING_FL=STORY 3_SCH=I,Zone Air Relative Humidity [%] !Daily [Value,Min,Hour,Minute,Max,Hour,Minute]
1673,1,ALL_ST=WHOLEBUILDING_FL=STORY 4_SCH=C,Zone Air Temperature [C] !Hourly
1674,7,ALL_ST=WHOLEBUILDING_FL=STORY 4_SCH=C,Zone Air Relative Humidity [%] !Daily [Value,Min,Hour,Minute,Max,Hour,Minute]
1713,1,ALL_ST=WHOLEBUILDING_FL=STORY 4_SCH=D,Zone Air Temperature [C] !Hourly
1714,7,ALL_ST=WHOLEBUILDING_FL=STORY 4_SCH=D,Zone Air Relative Humidity [%] !Daily [Value,Min,Hour,Minute,Max,Hour,Minute]
1753,1,ALL_ST=WHOLEBUILDING_FL=STORY 4_SCH=H,Zone Air Temperature [C] !Hourly
1754,7,ALL_ST=WHOLEBUILDING_FL=STORY 4_SCH=H,Zone Air Relative Humidity [%] !Daily [Value,Min,Hour,Minute,Max,Hour,Minute]
1793,1,DU_BT=PENITENTIARY_ST=WHOLEBUILDING_FL=STORY 3_SCHH,Zone Air Temperature [C] !Hourly
1794,7,DU_BT=PENITENTIARY_ST=WHOLEBUILDING_FL=STORY 3_SCHH,Zone Air Relative Humidity [%] !Daily [Value,Min,Hour,Minute,Max,Hour,Minute]
1833,1,WILD_ST=CORR. < 2.4M WIDE-SCH-A_FL=STORY 2_SCH=C,Zone Air Temperature [C] !Hourly
1834,7,WILD_ST=CORR. < 2.4M WIDE-SCH-A_FL=STORY 2_SCH=C,Zone Air Relative Humidity [%] !Daily [Value,Min,Hour,Minute,Max,Hour,Minute]
10,1,Electricity:Facility [J] !TimeStep
839,1,Gas:Facility [J] !TimeStep
End of Data Dictionary
1,FORT MCMURRAY AP ANN CLG .4% CONDNS DB=>MWB,  56.65,-111.22,  -7.00, 369.10
2,1, 7,21, 0, 1, 0.00,10.00,SummerDesignDay
8,14.218136923962174
10,108556703.14867717
839,12000.0
2,1, 7,21, 0, 1,10.00,20.00,SummerDesignDay
8,14.171982153293495
10,108565045.40630219
839,51298717.355565499
2,1, 7,21, 0, 1,20.00,30.00,SummerDesignDay
8,14.125744780286427
10,108380661.9891203
839,51521240.16009888
2,1, 7,21, 0, 1,30.00,40.00,SummerDesignDay
8,14.079436086331978
10,108104500.00393439
839,21625705.539541965
2,1, 7,21, 0, 1,40.00,50.00,SummerDesignDay
8,14.033050387896898
10,107801931.91863537
839,29839194.72335912
2,1, 7,21, 0, 1,50.00,60.00,SummerDesignDay
8,13.986581233564835
10,107540733.4964777
839,51389573.89416413
2,1, 7,21, 0, 1, 0.00,60.00,SummerDesignDay
1073,21.167194140542475
1113,23.46902553270523
1153,20.934800433041386
1193,21.74146601347015
1233,21.355070684134657
1273,23.100619683613215
1313,23.593894281298576
1353,21.757219924490128
1393,23.592888390776908
1433,22.146449179417876
1473,23.930962229783117
1513,23.655501688574899
1553,23.80065325733763
1593,23.99875549692739
1633,24.66516303323466
1673,24.065846165164346
1713,23.54987085007288
1753,24.001665420000739
1793,23.99643135470942
1833,25.218082719180658
2,1, 7,21, 0, 2, 0.00,10.00,SummerDesignDay
8,13.95555882260429
10,101859650.0277516
839,47342285.434211138
2,1, 7,21, 0, 2,10.00,20.00,SummerDesignDay
8,13.924507755336454
10,101600706.47319092
839,4043480.3904405056
2,1, 7,21, 0, 2,20.00,30.00,SummerDesignDay
8,13.893416042989206
10,101508302.28115127
839,51440730.941978368
2,1, 7,21, 0, 2,30.00,40.00,SummerDesignDay
8,13.862289589689029
10,101408854.15115835
839,51249158.06227338
2,1, 7,21, 0, 2,40.00,50.00,SummerDesignDay
8,13.831134407608739
10,101295994.71346745
839,8121081.505753652
2,1, 7,21, 0, 2,50.00,60.00,SummerDesignDay
8,13.799938415548118
10,101192334.92102786
839,42888792.57998687
2,1, 7,21, 0, 2, 0.00,60.00,SummerDesignDay
1073,20.95951701136032
1113,23.401837855920819
1153,20.503213356587464
1193,21.298701495106319
1233,20.889956206447029
1273,22.833917474433084
1313,23.502961809836383
1353,21.22756842353665
1393,23.255428566672966
1433,21.68185652356563
1473,23.69405996846288
1513,23.548818216315174
1553,23.615868342636817
1593,23.99881828166698
1633,24.285537272504997
1673,23.621694201381769
1713,23.14478136042317
1753,23.973897940877028
1793,23.99653042847368
1833,25.052021660257766
2,1, 7,21, 0, 3, 0.00,10.00,SummerDesignDay
8,13.776521671948676
10,101112890.994625
839,51129435.01648021
2,1, 7,21, 0, 3,10.00,20.00,SummerDesignDay
8,13.753085235778466
10,101011121.67747234
839,31066811.0571404
2,1, 7,21, 0, 3,20.00,30.00,SummerDesignDay
8,13.729636002354969
10,100909271.64208867
839,20174921.982654126
2,1, 7,21, 0, 3,30.00,40.00,SummerDesignDay
8,13.706147375533054
10,100833061.70443857
839,51038299.94983015
2,1, 7,21, 0, 3,40.00,50.00,SummerDesignDay
8,13.682651961920304
10,100737934.3469733
839,51337679.14144705
2,1, 7,21, 0, 3,50.00,60.00,SummerDesignDay
8,13.659136670643687
10,100635298.24767992
839,12000.0
2,1, 7,21, 0, 3, 0.00,60.00,SummerDesignDay
1073,20.763666525824335
1113,23.33224918190588
1153,20.177282193093597
1193,20.951206148613463
1233,20.528188189168306
1273,22.61795893411038
1313,23.416299321405945
1353,20.837183162343348
1393,22.97519337302928
1433,21.310674252338825
1473,23.495274774372928
1513,23.440104522678639
1553,23.426488599129955
1593,23.99887664725902
1633,23.829448554249557
1673,23.23017595373268
1713,22.798636634045708
1753,23.83774042610997
1793,23.99663263017419
1833,24.907162351204307
2,1, 7,21, 0, 4, 0.00,10.00,SummerDesignDay
8,13.63560137410855
10,100551767.26963559
839,50977962.83058852
2,1, 7,21, 0, 4,10.00,20.00,SummerDesignDay
8,13.612040802606578
10,100467177.2059071
839,51218247.83142459
2,1, 7,21, 0, 4,20.00,30.00,SummerDesignDay
8,13.58846620506876
10,100366253.12831992
839,14085858.052907519
2,1, 7,21, 0, 4,30.00,40.00,SummerDesignDay
8,13.56487178447336
10,100271603.53159933
839,36974687.18960763
2,1, 7,21, 0, 4,40.00,50.00,SummerDesignDay
8,13.541257354069103
10,100185276.19249349
839,51102912.70913975
2,1, 7,21, 0, 4,50.00,60.00,SummerDesignDay
8,13.517617463812285
10,100030078.8443622
839,36681081.57275292
2,1, 7,21, 0, 4, 0.00,60.00,SummerDesignDay
1073,20.570482641844323
1113,23.26083862329241
1153,19.8908462906134
1193,20.638169332261446
1233,20.20593891416684
1273,22.4215948682759
1313,23.33166118794424
1353,20.509013831907418
1393,22.718227389697377
1433,20.975431148449127
1473,23.310218098708803
1513,23.329900266300954
1553,23.236118971144877
1593,23.998928780402925
1633,23.568513025734519
1673,22.876098060004769
1713,22.49378270272717
1753,23.661976745753149
1793,23.996730701403935
1833,24.772557365945848
2,1, 7,21, 0, 5, 0.00,10.00,SummerDesignDay
8,13.50185415824011
10,99895964.35903862
839,14613708.046792798
2,1, 7,21, 0, 5,10.00,20.00,SummerDesignDay
8,13.486076034032447
10,99800452.63574456
839,51020353.809492658
2,1, 7,21, 0, 5,20.00,30.00,SummerDesignDay
8,13.470289340350983
10,99693287.42205523
839,51307584.84751624
2,1, 7,21, 0, 5,30.00,40.00,SummerDesignDay
8,13.454493322631063
10,99586008.40386784
839,12000.0
2,1, 7,21, 0, 5,40.00,50.00,SummerDesignDay
8,13.438688835118548
10,99502340.93987324
839,50965375.059659119
2,1, 7,21, 0, 5,50.00,60.00,SummerDesignDay
8,13.422888173889437
10,99428795.7233369
839,51186924.170485999
2,1, 7,21, 0, 5, 0.00,60.00,SummerDesignDay
1073,20.578938785223646
1113,23.187625224382903
1153,19.636494232711823
1193,20.43888518055654
1233,19.91666712729044
1273,22.23847923724496
1313,23.24820485476701
1353,20.271186284808395
1393,22.48271988367426
1433,20.676758493445705
1473,23.194011828452998
1513,23.2183529273871
1553,23.15808248270976
1593,23.998970471973626
1633,23.39676597628201
1673,22.60004885025663
1713,22.443343837320226
1753,23.536208828919397
1793,23.996825722097755
1833,24.649326269488843
2,1, 7,21, 0, 6, 0.00,10.00,SummerDesignDay
8,13.438688835118548
10,99675674.8393214
839,20019424.291552336
2,1, 7,21, 0, 6,10.00,20.00,SummerDesignDay
8,13.454493322631063
10,99689647.74713524
839,31102259.874078368
2,1, 7,21, 0, 6,20.00,30.00,SummerDesignDay
8,13.470289340350983
10,99752437.03523521
839,51078534.9225857
2,1, 7,21, 0, 6,30.00,40.00,SummerDesignDay
8,13.486076034032447
10,99798269.70465525
839,42268839.8394881
2,1, 7,21, 0, 6,40.00,50.00,SummerDesignDay
8,13.50185415824011
10,99831648.94420606
839,9065958.410237389
2,1, 7,21, 0, 6,50.00,60.00,SummerDesignDay
8,13.517617463812285
10,99862086.73749049
839,51004132.991517689
2,1, 7,21, 0, 6, 0.00,60.00,SummerDesignDay
1073,20.981353866801077
1113,23.119266906449977
1153,19.543610719423346
1193,20.617258697217385
1233,19.795980411350404
1273,22.135344686029908
1313,23.16665705179247
1353,20.33802977201083
1393,22.346659664541737
1433,20.545857103308096
1473,23.195474089534078
1513,23.10648995553476
1553,23.48484151761545
1593,23.998995198251305
1633,23.35752219701207
1673,22.594710114294345
1713,23.28492786068782
1753,23.654392154102238
1793,23.996898243404585
1833,24.5767787364471
2,1, 7,21, 0, 7, 0.00,10.00,SummerDesignDay
8,13.572736920571789
10,99899912.45230118
839,51277130.67540165
2,1, 7,21, 0, 7,10.00,20.00,SummerDesignDay
8,13.627748229152554
10,99934985.60255331
839,2629132.039279761
2,1, 7,21, 0, 7,20.00,30.00,SummerDesignDay
8,13.682651961920304
10,100266038.23582724
839,48349292.944031428
2,1, 7,21, 0, 7,30.00,40.00,SummerDesignDay
8,13.737448093244995
10,100937666.57881598
839,51155697.29054049
2,1, 7,21, 0, 7,40.00,50.00,SummerDesignDay
8,13.792137011831216
10,101076611.96670547
839,25879442.03262731
2,1, 7,21, 0, 7,50.00,60.00,SummerDesignDay
8,13.846719282840333
10,101539821.64292456
839,25306772.551446134
2,1, 7,21, 0, 7, 0.00,60.00,SummerDesignDay
1073,21.259283130699143
1113,23.060729945837868
1153,19.763835601618128
1193,21.06790064636461
1233,20.00320663876396
1273,22.19005217361226
1313,23.090738639266687
1353,20.831512240810736
1393,22.38769062848573
1433,20.717405940797037
1473,23.176191234561644
1513,22.997649227239767
1553,23.882546272670614
1593,23.999007707820359
1633,23.308355796584086
1673,22.9206273828575
1713,24.586102831373159
1753,23.960073966690563
1793,23.996943419389934
1833,24.581046230630276
2,1, 7,21, 0, 8, 0.00,10.00,SummerDesignDay
8,13.978831900527043
10,120134675.31275404
839,52669933.0541005
2,1, 7,21, 0, 8,10.00,20.00,SummerDesignDay
8,14.110321014287419
10,112640509.8892597
839,48806659.97111081
2,1, 7,21, 0, 8,20.00,30.00,SummerDesignDay
8,14.241191509616986
10,118306963.7159919
839,2679281.343020126
2,1, 7,21, 0, 8,30.00,40.00,SummerDesignDay
8,14.371447531304272
10,119903816.90038257
839,51200676.23763992
2,1, 7,21, 0, 8,40.00,50.00,SummerDesignDay
8,14.501093766564925
10,120732266.08483365
839,51439462.799448009
2,1, 7,21, 0, 8,50.00,60.00,SummerDesignDay
8,14.630134792273804
10,123259282.0516617
839,15383203.045543258
2,1, 7,21, 0, 8, 0.00,60.00,SummerDesignDay
1073,21.886826352390228
1113,23.009570285932808
1153,20.523896536581213
1193,21.917145593030296
1233,20.743298833985098
1273,22.50009026331071
1313,23.431058814161486
1353,21.987029196262353
1393,22.7199802157521
1433,21.394398652649107
1473,23.380102554775534
1513,22.903609559122335
1553,23.9999603506584
1593,23.999141946453283
1633,23.488546046315496
1673,23.68834392037152
1713,24.01898750851497
1753,23.999932479506666
1793,23.99733116678777
1833,23.998877210505176
2,1, 7,21, 0, 9, 0.00,10.00,SummerDesignDay
8,14.773641492809972
10,240589721.13679043
839,79529794.42083295
2,1, 7,21, 0, 9,10.00,20.00,SummerDesignDay
8,14.91640948124148
10,245195766.34088657
839,60828116.9762069
2,1, 7,21, 0, 9,20.00,30.00,SummerDesignDay
8,15.05843890714102
10,250108933.48538525
839,62238272.14132139
2,1, 7,21, 0, 9,30.00,40.00,SummerDesignDay
8,15.199735893563798
10,254336379.78658355
839,62170462.38208719
2,1, 7,21, 0, 9,40.00,50.00,SummerDesignDay
8,15.340306256439395
10,258362290.99287508
839,61994404.527378369
2,1, 7,21, 0, 9,50.00,60.00,SummerDesignDay
8,15.48015101768072
10,263782164.42614103
839,62132501.764119427
2,1, 7,21, 0, 9, 0.00,60.00,SummerDesignDay
1073,23.16556423676897
1113,23.205200269282874
1153,22.415163722483486
1193,23.472098475005088
1233,22.84642183014992
1273,23.471609469012447
1313,23.97834322234728
1353,23.751408255378267
1393,23.723716451657137
1433,22.88285582006624
1473,23.962811035952674
1513,23.494956473570828
1553,23.99985544378107
1593,23.999318673623209
1633,23.927198432456874
1673,23.999768236340257
1713,23.999475262626374
1753,23.99984839387385
1793,23.997903174120819
1833,23.999934936783835
2,1, 7,21, 0,10, 0.00,10.00,SummerDesignDay
8,15.60467292907716
10,385631773.1641794
839,69518244.46657868
2,1, 7,21, 0,10,10.00,20.00,SummerDesignDay
8,15.72862731650033
10,398059532.29681798
839,62974518.1667152
2,1, 7,21, 0,10,20.00,30.00,SummerDesignDay
8,15.852017409284228
10,406260511.6417457
839,60151775.33050551
2,1, 7,21, 0,10,30.00,40.00,SummerDesignDay
8,15.974848118364367
10,412501228.46253296
839,60059021.16722393
2,1, 7,21, 0,10,40.00,50.00,SummerDesignDay
8,16.097123145563505
10,418956325.12542638
839,60004391.02894992
2,1, 7,21, 0,10,50.00,60.00,SummerDesignDay
8,16.218846351168599
10,425527523.7987138
839,59951710.07313037
2,1, 7,21, 0,10, 0.00,60.00,SummerDesignDay
1073,23.99122187650352
1113,23.643634014552789
1153,23.8025233979468
1193,23.999502222957337
1233,23.971710155333189
1273,23.999546993036647
1313,23.999613793507924
1353,23.997835681880998
1393,23.999628609130498
1433,23.967143813028586
1473,23.999502835841054
1513,23.993372051634613
1553,23.999493562650568
1593,23.999035709579318
1633,24.559344225514736
1673,23.999502613628839
1713,23.997723363576129
1753,23.999748402729286
1793,23.997261859526409
1833,23.999858765052286
2,1, 7,21, 0,11, 0.00,10.00,SummerDesignDay
8,16.325793027093189
10,444565202.6975452
839,80038515.54566787
2,1, 7,21, 0,11,10.00,20.00,SummerDesignDay
8,16.432322158488288
10,451833679.9712954
839,81679694.88004257
2,1, 7,21, 0,11,20.00,30.00,SummerDesignDay
8,16.538424180249178
10,457435704.1445201
839,85293086.89049652
2,1, 7,21, 0,11,30.00,40.00,SummerDesignDay
8,16.644108396469087
10,462662453.11648687
839,94546676.95196826
2,1, 7,21, 0,11,40.00,50.00,SummerDesignDay
8,16.749376736593655
10,468005407.2951424
839,94599240.18434352
2,1, 7,21, 0,11,50.00,60.00,SummerDesignDay
8,16.854232613237156
10,473165313.1889727
839,94659269.0923989
2,1, 7,21, 0,11, 0.00,60.00,SummerDesignDay
1073,23.99971847935574
1113,23.987926323020856
1153,23.99949485871573
1193,23.99918259564295
1233,23.999479614495937
1273,23.99914458771252
1313,23.999407406311705
1353,23.99656278419826
1393,23.998979986827086
1433,23.99932700797649
1473,23.99877150954059
1513,23.99992131878861
1553,23.999250473841895
1593,23.998695883229869
1633,25.279747726923856
1673,23.99906199128199
1713,23.99671597678005
1753,23.99973956341209
1793,23.996741947561888
1833,23.9998226872758
2,1, 7,21, 0,12, 0.00,10.00,SummerDesignDay
8,16.92390823520069
10,477012316.6586194
839,105738004.00133775
2,1, 7,21, 0,12,10.00,20.00,SummerDesignDay
8,16.99340178950456
10,481023834.4597778
839,88510201.03702007
2,1, 7,21, 0,12,20.00,30.00,SummerDesignDay
8,17.06272006743463
10,484789351.5242413
839,86624116.43411735
2,1, 7,21, 0,12,30.00,40.00,SummerDesignDay
8,17.131853229172639
10,488614029.4505628
839,86574414.96670532
2,1, 7,21, 0,12,40.00,50.00,SummerDesignDay
8,17.200807172194087
10,492354036.8640562
839,86523113.0164881
2,1, 7,21, 0,12,50.00,60.00,SummerDesignDay
8,17.269582116758607
10,496044124.0807646
839,86470950.02785231
2,1, 7,21, 0,12, 0.00,60.00,SummerDesignDay
1073,23.999378587782986
1113,23.999653383658626
1153,23.999401535868704
1193,23.999007801762166
1233,23.999367555572435
1273,23.99902313247304
1313,23.999249010905947
1353,23.99583800346767
1393,23.998529533733757
1433,23.999128247644764
1473,23.998248746839523
1513,23.999818316259398
1553,23.9991077246362
1593,23.998544086395403
1633,25.968657371680139
1673,23.99878367437897
1713,23.996392146504929
1753,23.999813649843007
1793,23.996684905313275
1833,23.99983388571374
2,1, 7,21, 0,13, 0.00,10.00,SummerDesignDay
8,17.32447360221357
10,504204393.23683479
839,147034174.44701547
2,1, 7,21, 0,13,10.00,20.00,SummerDesignDay
8,17.379251291230806
10,508349294.4860521
839,101012933.06260202
2,1, 7,21, 0,13,20.00,30.00,SummerDesignDay
8,17.433921312061729
10,511582571.42706987
839,147034174.44701547
2,1, 7,21, 0,13,30.00,40.00,SummerDesignDay
8,17.488473222557489
10,514927449.7739634
839,101018130.88354199
2,1, 7,21, 0,13,40.00,50.00,SummerDesignDay
8,17.542913447755134
10,518224600.81736627
839,147034174.44701547
2,1, 7,21, 0,13,50.00,60.00,SummerDesignDay
8,17.59724609886134
10,521387195.4708452
839,101026444.8402908
2,1, 7,21, 0,13, 0.00,60.00,SummerDesignDay
1073,23.999187776873027
1113,23.999365207968386
1153,23.99892806044542
1193,23.998413244837253
1233,23.998981873380378
1273,23.998848142770624
1313,23.99922513409872
1353,23.995992535011017
1393,23.997616124490454
1433,23.998536024024248
1473,23.997228102292245
1513,23.99966341654606
1553,23.99914305999977
1593,23.998449601985859
1633,26.483897250120667
1673,23.998303184552325
1713,23.99642530681685
1753,23.999973368335984
1793,23.99659070659021
1833,23.999846423970067
2,1, 7,21, 0,14, 0.00,10.00,SummerDesignDay
8,17.6311450462694
10,523575112.5435467
839,147034174.44701547
2,1, 7,21, 0,14,10.00,20.00,SummerDesignDay
8,17.665000449016245
10,525767763.7208506
839,101706424.44440218
2,1, 7,21, 0,14,20.00,30.00,SummerDesignDay
8,17.698812743128934
10,527826292.4519981
839,147034174.44701547
2,1, 7,21, 0,14,30.00,40.00,SummerDesignDay
8,17.732582050940107
10,529829376.48081979
839,101689720.26826979
2,1, 7,21, 0,14,40.00,50.00,SummerDesignDay
8,17.766307345121004
10,531843327.3301742
839,147034174.44701547
2,1, 7,21, 0,14,50.00,60.00,SummerDesignDay
8,17.79999023167558
10,533765606.1015169
839,101672907.39955004
2,1, 7,21, 0,14, 0.00,60.00,SummerDesignDay
1073,23.99914038120212
1113,23.999183080029409
1153,23.998593063851805
1193,23.997928204585475
1233,23.998634047359574
1273,23.998565023626708
1313,23.99928594539635
1353,23.99606623938853
1393,23.996824591943097
1433,23.998011491558584
1473,23.99642444271684
1513,23.999544669850196
1553,23.999196195207067
1593,23.998414018774324
1633,26.889337986852355
1673,23.99790552975382
1713,23.99647164831913
1753,23.99998581641712
1793,23.996537734187674
1833,23.999856133722337
2,1, 7,21, 0,15, 0.00,10.00,SummerDesignDay
8,17.79999023167558
10,545034907.5283841
839,147034174.4470155
2,1, 7,21, 0,15,10.00,20.00,SummerDesignDay
8,17.79999023167558
10,543088918.7537234
839,101291549.76356338
2,1, 7,21, 0,15,20.00,30.00,SummerDesignDay
8,17.79999023167558
10,541580278.9367474
839,147034174.44701547
2,1, 7,21, 0,15,30.00,40.00,SummerDesignDay
8,17.79999023167558
10,540849100.148441
839,101312554.6787502
2,1, 7,21, 0,15,40.00,50.00,SummerDesignDay
8,17.79999023167558
10,541292382.9487054
839,147034174.44701547
2,1, 7,21, 0,15,50.00,60.00,SummerDesignDay
8,17.79999023167558
10,541101036.4932064
839,101316312.2662638
2,1, 7,21, 0,15, 0.00,60.00,SummerDesignDay
1073,23.9994677841896
1113,23.999378947748295
1153,23.999076580619307
1193,23.998612805447239
1233,23.99908190941296
1273,23.99910614237332
1313,23.99946974713619
1353,23.997546937571668
1393,23.997506984446628
1433,23.998505604049325
1473,23.997432821812056
1513,23.999652728727143
1553,23.99939314382856
1593,23.998957768321366
1633,24.247209420865546
1673,23.998384992880529
1713,23.997734572257689
1753,24.000007567309099
1793,24.00639223020325
1833,23.99991169111244
2,1, 7,21, 0,16, 0.00,10.00,SummerDesignDay
8,17.759562446305357
10,546761617.7206528
839,147034174.44701547
2,1, 7,21, 0,16,10.00,20.00,SummerDesignDay
8,17.71907809634183
10,544803065.0068297
839,101228453.01707934
2,1, 7,21, 0,16,20.00,30.00,SummerDesignDay
8,17.67853788661001
10,542796027.3096722
839,147034174.44701547
2,1, 7,21, 0,16,30.00,40.00,SummerDesignDay
8,17.63791796367351
10,540535613.8559177
839,101227580.29733801
2,1, 7,21, 0,16,40.00,50.00,SummerDesignDay
8,17.59724609886134
10,538308523.8160848
839,147034174.44701547
2,1, 7,21, 0,16,50.00,60.00,SummerDesignDay
8,17.55650676726033
10,535909696.1258255
839,101226678.66429702
2,1, 7,21, 0,16, 0.00,60.00,SummerDesignDay
1073,23.999271835873974
1113,23.99900472379125
1153,23.998530859234369
1193,23.997838134341948
1233,23.998555759298755
1273,23.99853242837533
1313,23.999155235753745
1353,23.99642030415072
1393,23.995700943837155
1433,23.997448285071813
1473,23.995937485398387
1513,23.99946652334855
1553,23.999047183382847
1593,23.9984373377786
1633,23.999824227435174
1673,23.997367241979118
1713,23.996706586783188
1753,23.999937149963306
1793,24.04548015322293
1833,23.99985211743848
2,1, 7,21, 0,17, 0.00,10.00,SummerDesignDay
8,17.50209486331892
10,525942226.7976573
839,137286767.1246921
2,1, 7,21, 0,17,10.00,20.00,SummerDesignDay
8,17.447570789624618
10,521870657.3966559
839,102559059.57895707
2,1, 7,21, 0,17,20.00,30.00,SummerDesignDay
8,17.392929544208135
10,518756015.1835855
839,92629612.16457279
2,1, 7,21, 0,17,30.00,40.00,SummerDesignDay
8,17.33818013976614
10,515811089.77022489
839,92534142.48077213
2,1, 7,21, 0,17,40.00,50.00,SummerDesignDay
8,17.283317298559309
10,512910994.37071529
839,111176067.28889059
2,1, 7,21, 0,17,50.00,60.00,SummerDesignDay
8,17.22833552437677
10,509991047.45543649
839,128359013.91829644
2,1, 7,21, 0,17, 0.00,60.00,SummerDesignDay
1073,23.999270986411614
1113,23.998860227897536
1153,23.99843047905341
1193,23.997712397260558
1233,23.998494660766437
1273,23.99847140236515
1313,23.999145908983154
1353,23.99750399262457
1393,23.995087378201079
1433,23.997098746637247
1473,23.995509259138019
1513,23.99944546401207
1553,23.9990746012451
1593,23.998428007334139
1633,23.999710989891196
1673,23.997285648494299
1713,23.99774801347768
1753,23.999897006031728
1793,24.048578372748847
1833,23.99982357958554
2,1, 7,21, 0,18, 0.00,10.00,SummerDesignDay
8,17.159453019160176
10,488769297.6576628
839,73168136.66241607
2,1, 7,21, 0,18,10.00,20.00,SummerDesignDay
8,17.090391773337136
10,483632828.3434067
839,70082195.6647686
2,1, 7,21, 0,18,20.00,30.00,SummerDesignDay
8,17.021151077964786
10,479778998.0226593
839,70058323.40308997
2,1, 7,21, 0,18,30.00,40.00,SummerDesignDay
8,16.951729380464653
10,476005306.513941
839,70035154.49642834
2,1, 7,21, 0,18,40.00,50.00,SummerDesignDay
8,16.882126503829249
10,472300719.83648696
839,70011706.9060285
2,1, 7,21, 0,18,50.00,60.00,SummerDesignDay
8,16.812341807494034
10,468613911.0207232
839,69987965.93496989
2,1, 7,21, 0,18, 0.00,60.00,SummerDesignDay
1073,23.999354447717399
1113,23.998924345620308
1153,23.998553755716988
1193,23.997868631313169
1233,23.998522414130475
1273,23.998470864143628
1313,23.999307369227723
1353,23.998884936667243
1393,23.995470404170378
1433,23.99720831772721
1473,23.995914649543044
1513,23.999506313594453
1553,23.999257091456245
1593,23.998415620499697
1633,23.999665887899977
1673,23.997691001859989
1713,23.998962692032746
1753,23.999924595358679
1793,24.01233161641208
1833,23.999801187411298
2,1, 7,21, 0,19, 0.00,10.00,SummerDesignDay
8,16.707321072823203
10,433377385.6413243
839,64812554.25974087
2,1, 7,21, 0,19,10.00,20.00,SummerDesignDay
8,16.601881826644556
10,427698303.6621006
839,64162968.16646628
2,1, 7,21, 0,19,20.00,30.00,SummerDesignDay
8,16.496030555252849
10,422631581.947594
839,64126532.88060552
2,1, 7,21, 0,19,30.00,40.00,SummerDesignDay
8,16.389760181474104
10,417645571.45685508
839,68978394.63125094
2,1, 7,21, 0,19,40.00,50.00,SummerDesignDay
8,16.283067654262039
10,412691261.50758728
839,72397065.9313592
2,1, 7,21, 0,19,50.00,60.00,SummerDesignDay
8,16.17595057957811
10,407751085.07337358
839,72408467.42896216
2,1, 7,21, 0,19, 0.00,60.00,SummerDesignDay
1073,23.999509892644267
1113,23.99914508320886
1153,23.999027787950099
1193,23.998484947763605
1233,23.998886642015607
1273,23.9993433599212
1313,23.999637797448256
1353,23.999473975451708
1393,23.996644192499106
1433,23.99790171414668
1473,23.99694592720498
1513,23.999657248628876
1553,23.999596281763954
1593,23.99841825770569
1633,23.9990361936194
1673,23.9984057686024
1713,23.99948205090452
1753,23.999952725401429
1793,23.99601841293084
1833,23.999797038264505
2,1, 7,21, 0,20, 0.00,10.00,SummerDesignDay
8,16.097123145563505
10,333165454.20275929
839,68122452.63378378
2,1, 7,21, 0,20,10.00,20.00,SummerDesignDay
8,16.018070242471564
10,328531425.2632357
839,67692542.96669124
2,1, 7,21, 0,20,20.00,30.00,SummerDesignDay
8,15.938779752340516
10,324530918.1246787
839,67711492.3468837
2,1, 7,21, 0,20,30.00,40.00,SummerDesignDay
8,15.85926152575189
10,320481811.8525736
839,67730811.88715106
2,1, 7,21, 0,20,40.00,50.00,SummerDesignDay
8,15.779503718563929
10,316361642.0916528
839,67750162.36440127
2,1, 7,21, 0,20,50.00,60.00,SummerDesignDay
8,15.699515709672767
10,312122302.8956336
839,67769529.18695426
2,1, 7,21, 0,20, 0.00,60.00,SummerDesignDay
1073,23.92741026636095
1113,23.999363990732435
1153,23.99955775382641
1193,23.999232174194533
1233,23.999479518831753
1273,24.612936688840848
1313,23.999720421824394
1353,23.999319275944804
1393,23.998165125289849
1433,23.99888777166652
1473,23.998298032960635
1513,23.99969745579817
1553,23.99967891850699
1593,23.998453598902285
1633,23.99723160408479
1673,23.99922269026762
1713,23.999385711347377
1753,23.999972020428314
1793,23.99601166013811
1833,23.999854346156459
2,1, 7,21, 0,21, 0.00,10.00,SummerDesignDay
8,15.63389147320404
10,289266849.03473177
839,60178558.79426226
2,1, 7,21, 0,21,10.00,20.00,SummerDesignDay
8,15.56810827419793
10,285091635.8418748
839,57192976.03587492
2,1, 7,21, 0,21,20.00,30.00,SummerDesignDay
8,15.502170882753524
10,280883914.933142
839,57124999.93812387
2,1, 7,21, 0,21,30.00,40.00,SummerDesignDay
8,15.436068032613852
10,277348685.5208957
839,57054027.68269172
2,1, 7,21, 0,21,40.00,50.00,SummerDesignDay
8,15.369804371206009
10,273978753.7614375
839,56981265.392428468
2,1, 7,21, 0,21,50.00,60.00,SummerDesignDay
8,15.303384603594449
10,270478555.3930861
839,56906679.793129649
2,1, 7,21, 0,21, 0.00,60.00,SummerDesignDay
1073,23.46855581562775
1113,23.99941968796317
1153,23.946036278666715
1193,23.99947692674373
1233,23.9996647448471
1273,24.45819467274107
1313,23.99977030463177
1353,23.999336247240213
1393,23.99889640740048
1433,23.999318686208555
1473,23.998813696031435
1513,23.999751013704004
1553,23.99976025496352
1593,23.998522326064387
1633,23.996220055345434
1673,23.999625445921479
1713,23.999419915045448
1753,23.99998716385655
1793,23.996084511457118
1833,23.999898532618557
2,1, 7,21, 0,22, 0.00,10.00,SummerDesignDay
8,15.236797685071274
10,160955725.48209203
839,52808911.90485762
2,1, 7,21, 0,22,10.00,20.00,SummerDesignDay
8,15.170047891787942
10,160201492.7236442
839,57526857.992581229