Program Version,EnergyPlus, Version 8.9.0-eba93e8e1b, YMD=2019.04.04 17:58
1,5,Environment Title[],Latitude[deg],Longitude[deg],Time Zone[],Elevation[m]
2,8,Day of Simulation[],Month[],Day of Month[],DST Indicator[1=yes 0=no],Hour[],StartMinute[],EndMinute[],DayType
3,5,Cumulative Day of Simulation[],Month[],Day of Month[],DST Indicator[1=yes 0=no],DayType  ! When Daily Report Variables Requested
4,2,Cumulative Days of Simulation[],Month[]  ! When Monthly Report Variables Requested
5,1,Cumulative Days of Simulation[] ! When Run Period Report Variables Requested
6,1,Calendar Year of Simulation[] ! When Annual Report Variables Requested
7,9,Environment,Site Outdoor Air Drybulb Temperature [C] !Monthly [Value,Min,Day,Hour,Minute,Max,Day,Hour,Minute]
8,1,Environment,Site Outdoor Air Wetbulb Temperature [C] !TimeStep
555,1,ALL_ST=WHOLEBUILDING_FL=STORY 1_SCH=A,Zone Air Temperature [C] !Hourly
556,7,ALL_ST=WHOLEBUILDING_FL=STORY 1_SCH=A,Zone Air Relative Humidity [%] !Daily [Value,Min,Hour,Minute,Max,Hour,Minute]
595,1,ALL_ST=WHOLEBUILDING_FL=STORY 1_SCH=A 1,Zone Air Temperature [C] !Hourly
596,7,ALL_ST=WHOLEBUILDING_FL=STORY 1_SCH=A 1,Zone Air Relative Humidity [%] !Daily [Value,Min,Hour,Minute,Max,Hour,Minute]
635,1,ALL_ST=WHOLEBUILDING_FL=STORY 1_SCH=C,Zone Air Temperature [C] !Hourly
636,7,ALL_ST=WHOLEBUILDING_FL=STORY 1_SCH=C,Zone Air Relative Humidity [%] !Daily [Value,Min,Hour,Minute,Max,Hour,Minute]
675,1,ALL_ST=WHOLEBUILDING_FL=STORY 1_SCH=H,Zone Air Temperature [C] !Hourly
676,7,ALL_ST=WHOLEBUILDING_FL=STORY 1_SCH=H,Zone Air Relative Humidity [%] !Daily [Value,Min,Hour,Minute,Max,Hour,Minute]
715,1,DU_BT=HOTEL_ST=WHOLEBUILDING_FL=STORY 1_SCHF,Zone Air Temperature [C] !Hourly
716,7,DU_BT=HOTEL_ST=WHOLEBUILDING_FL=STORY 1_SCHF,Zone Air Relative Humidity [%] !Daily [Value,Min,Hour,Minute,Max,Hour,Minute]
10,1,Electricity:Facility [J] !TimeStep
321,1,Gas:Facility [J] !TimeStep
End of Data Dictionary
1,FORT MCMURRAY AP ANN CLG .4% CONDNS DB=>MWB,  56.65,-111.22,  -7.00, 369.10
2,1, 7,21, 0, 1, 0.00,10.00,SummerDesignDay
8,14.218136923962174
10,39836976.865636419
321,20884668.889663519
2,1, 7,21, 0, 1,10.00,20.00,SummerDesignDay
8,14.171982153293495
10,39280859.16172856
321,17875727.621885409
2,1, 7,21, 0, 1,20.00,30.00,SummerDesignDay
8,14.125744780286427
10,39023328.65142047
321,23447519.19229741
2,1, 7,21, 0, 1,30.00,40.00,SummerDesignDay
8,14.079436086331978
10,38837653.89916886
321,24941456.213279196
2,1, 7,21, 0, 1,40.00,50.00,SummerDesignDay
8,14.033050387896898
10,38624581.21737924
321,25023527.28853663
2,1, 7,21, 0, 1,50.00,60.00,SummerDesignDay
8,13.986581233564835
10,38417974.64982819
321,25105699.65188748
2,1, 7,21, 0, 1, 0.00,60.00,SummerDesignDay
555,20.621512296090338
595,21.815220241960174
635,20.82172682195886
675,23.998704450349835
715,23.87929185273593
2,1, 7,21, 0, 2, 0.00,10.00,SummerDesignDay
8,13.95555882260429
10,36358867.135421227
321,22337399.59885519
2,1, 7,21, 0, 2,10.00,20.00,SummerDesignDay
8,13.924507755336454
10,35894630.735228519
321,13951754.766294701
2,1, 7,21, 0, 2,20.00,30.00,SummerDesignDay
8,13.893416042989206
10,35608968.555068988
321,16534083.623713442
2,1, 7,21, 0, 2,30.00,40.00,SummerDesignDay
8,13.862289589689029
10,35608805.3260052
321,19851325.510597748
2,1, 7,21, 0, 2,40.00,50.00,SummerDesignDay
8,13.831134407608739
10,35588257.325897257
321,12499788.770052694
2,1, 7,21, 0, 2,50.00,60.00,SummerDesignDay
8,13.799938415548118
10,35570863.08443604
321,24106727.12892697
2,1, 7,21, 0, 2, 0.00,60.00,SummerDesignDay
555,20.08922862371827
595,21.337107488569506
635,20.313126968326448
675,23.991537258587198
715,23.874897250133519
2,1, 7,21, 0, 3, 0.00,10.00,SummerDesignDay
8,13.776521671948676
10,35560666.05682369
321,12312882.876797822
2,1, 7,21, 0, 3,10.00,20.00,SummerDesignDay
8,13.753085235778466
10,35390986.47320393
321,12335829.544691312
2,1, 7,21, 0, 3,20.00,30.00,SummerDesignDay
8,13.729636002354969
10,35381825.38306594
321,23642138.451481008
2,1, 7,21, 0, 3,30.00,40.00,SummerDesignDay
8,13.706147375533054
10,35374943.45677031
321,12397355.987403676
2,1, 7,21, 0, 3,40.00,50.00,SummerDesignDay
8,13.682651961920304
10,35358226.4803756
321,12445087.9143746
2,1, 7,21, 0, 3,50.00,60.00,SummerDesignDay
8,13.659136670643687
10,35347314.80974626
321,12496651.586569198
2,1, 7,21, 0, 3, 0.00,60.00,SummerDesignDay
555,19.706455105230388
595,20.98547127013869
635,19.935365539456176
675,23.806925499333535
715,23.871083940143973
2,1, 7,21, 0, 4, 0.00,10.00,SummerDesignDay
8,13.63560137410855
10,33520365.674623304
321,12276206.202929825
2,1, 7,21, 0, 4,10.00,20.00,SummerDesignDay
8,13.612040802606578
10,33196374.48154648
321,12287179.061982787
2,1, 7,21, 0, 4,20.00,30.00,SummerDesignDay
8,13.58846620506876
10,33286416.5022323
321,12327921.04054724
2,1, 7,21, 0, 4,30.00,40.00,SummerDesignDay
8,13.56487178447336
10,33217858.67103363
321,12368978.167926042
2,1, 7,21, 0, 4,40.00,50.00,SummerDesignDay
8,13.541257354069103
10,33218863.148340543
321,12410051.711000605
2,1, 7,21, 0, 4,50.00,60.00,SummerDesignDay
8,13.517617463812285
10,33205634.04174055
321,12451123.841470676
2,1, 7,21, 0, 4, 0.00,60.00,SummerDesignDay
555,19.400345793124207
595,20.707809033644567
635,19.64043270287183
675,23.549303559694896
715,23.8773647928641
2,1, 7,21, 0, 5, 0.00,10.00,SummerDesignDay
8,13.50185415824011
10,33194649.069313289
321,12479847.785923966
2,1, 7,21, 0, 5,10.00,20.00,SummerDesignDay
8,13.486076034032447
10,33184493.653230169
321,12507191.3926027
2,1, 7,21, 0, 5,20.00,30.00,SummerDesignDay
8,13.470289340350983
10,33175072.54598944
321,12534532.539929808
2,1, 7,21, 0, 5,30.00,40.00,SummerDesignDay
8,13.454493322631063
10,33166603.18713523
321,12561872.093084934
2,1, 7,21, 0, 5,40.00,50.00,SummerDesignDay
8,13.438688835118548
10,33165581.315154256
321,12589210.074414213
2,1, 7,21, 0, 5,50.00,60.00,SummerDesignDay
8,13.422888173889437
10,33165581.315154256
321,12616546.52819618
2,1, 7,21, 0, 5, 0.00,60.00,SummerDesignDay
555,19.137593649744294
595,20.473400166252238
635,19.39270500137577
675,23.312124965654154
715,23.878595995582655
2,1, 7,21, 0, 6, 0.00,10.00,SummerDesignDay
8,13.438688835118548
10,33165581.315154256
321,12856674.703021845
2,1, 7,21, 0, 6,10.00,20.00,SummerDesignDay
8,13.454493322631063
10,33232862.43645926
321,12868206.20437349
2,1, 7,21, 0, 6,20.00,30.00,SummerDesignDay
8,13.470289340350983
10,33309464.02742674
321,24088876.676516184
2,1, 7,21, 0, 6,30.00,40.00,SummerDesignDay
8,13.486076034032447
10,33269532.109072485
321,12789985.911779408
2,1, 7,21, 0, 6,40.00,50.00,SummerDesignDay
8,13.50185415824011
10,33273721.292926808
321,12771165.369665897
2,1, 7,21, 0, 6,50.00,60.00,SummerDesignDay
8,13.517617463812285
10,33270055.05587958
321,12754279.725095923
2,1, 7,21, 0, 6, 0.00,60.00,SummerDesignDay
555,19.031950764146918
595,20.342428246504647
635,19.26934717921546
675,23.221178752782966
715,23.8784841322914
2,1, 7,21, 0, 7, 0.00,10.00,SummerDesignDay
8,13.572736920571789
10,34834532.44316145
321,50386102.880302559
2,1, 7,21, 0, 7,10.00,20.00,SummerDesignDay
8,13.627748229152554
10,36097953.62584552
321,25074010.963187025
2,1, 7,21, 0, 7,20.00,30.00,SummerDesignDay
8,13.682651961920304
10,35270977.5810068
321,13090662.115938725
2,1, 7,21, 0, 7,30.00,40.00,SummerDesignDay
8,13.737448093244995
10,35596714.0108949
321,29946787.85119605
2,1, 7,21, 0, 7,40.00,50.00,SummerDesignDay
8,13.792137011831216
10,35586468.09170395
321,28843089.344420606
2,1, 7,21, 0, 7,50.00,60.00,SummerDesignDay
8,13.846719282840333
10,35591399.91892324
321,16956824.893247077
2,1, 7,21, 0, 7, 0.00,60.00,SummerDesignDay
555,20.148853694605898
595,20.443859202179259
635,19.415358557058647
675,23.45105632856351
715,23.88395608201307
2,1, 7,21, 0, 8, 0.00,10.00,SummerDesignDay
8,13.978831900527043
10,47797791.112378399
321,101599406.36983043
2,1, 7,21, 0, 8,10.00,20.00,SummerDesignDay
8,14.110321014287419
10,48579419.340393457
321,47179394.7874339
2,1, 7,21, 0, 8,20.00,30.00,SummerDesignDay
8,14.241191509616986
10,49835852.99335744
321,38793573.03637512
2,1, 7,21, 0, 8,30.00,40.00,SummerDesignDay
8,14.371447531304272
10,50539801.56868659
321,32147933.744298437
2,1, 7,21, 0, 8,40.00,50.00,SummerDesignDay
8,14.501093766564925
10,51042734.97608487
321,28380146.708017138
2,1, 7,21, 0, 8,50.00,60.00,SummerDesignDay
8,14.630134792273804
10,51130188.42007795
321,26566697.600542424
2,1, 7,21, 0, 8, 0.00,60.00,SummerDesignDay
555,22.001099933525919
595,22.19611252307689
635,20.168910111309267
675,23.93172566311884
715,23.90587135926748
2,1, 7,21, 0, 9, 0.00,10.00,SummerDesignDay
8,14.773641492809972
10,85697398.68635927
321,54355567.13061854
2,1, 7,21, 0, 9,10.00,20.00,SummerDesignDay
8,14.91640948124148
10,88177619.6940019
321,52307023.3191265
2,1, 7,21, 0, 9,20.00,30.00,SummerDesignDay
8,15.05843890714102
10,90664154.70424666
321,44535579.20103608
2,1, 7,21, 0, 9,30.00,40.00,SummerDesignDay
8,15.199735893563798
10,93403621.65807519
321,42720927.13655907
2,1, 7,21, 0, 9,40.00,50.00,SummerDesignDay
8,15.340306256439395
10,97090369.17586875
321,38243512.185784239
2,1, 7,21, 0, 9,50.00,60.00,SummerDesignDay
8,15.48015101768072
10,98655702.44127232
321,38221544.391625057
2,1, 7,21, 0, 9, 0.00,60.00,SummerDesignDay
555,23.397728774344015
595,23.795080655291277
635,22.656399731286859
675,23.99917704429123
715,23.94293134334728
2,1, 7,21, 0,10, 0.00,10.00,SummerDesignDay
8,15.60467292907716
10,112519858.0442963
321,41829835.533255297
2,1, 7,21, 0,10,10.00,20.00,SummerDesignDay
8,15.72862731650033
10,115417714.7559154
321,41940702.160544428
2,1, 7,21, 0,10,20.00,30.00,SummerDesignDay
8,15.852017409284228
10,115457854.17520182
321,27950795.870474884
2,1, 7,21, 0,10,30.00,40.00,SummerDesignDay
8,15.974848118364367
10,117093610.5593086
321,41938673.19889285
2,1, 7,21, 0,10,40.00,50.00,SummerDesignDay
8,16.097123145563505
10,118158064.7528087
321,39899633.696111518
2,1, 7,21, 0,10,50.00,60.00,SummerDesignDay
8,16.218846351168599
10,119235580.68216127
321,29990441.891760068
2,1, 7,21, 0,10, 0.00,60.00,SummerDesignDay
555,23.999082174450935
595,23.9987945561225
635,23.987789502746194
675,23.99859603903029
715,23.890196004686293
2,1, 7,21, 0,11, 0.00,10.00,SummerDesignDay
8,16.325793027093189
10,120050487.56323323
321,41969416.67141196
2,1, 7,21, 0,11,10.00,20.00,SummerDesignDay
8,16.432322158488288
10,120788565.57347857
321,36637587.690156947
2,1, 7,21, 0,11,20.00,30.00,SummerDesignDay
8,16.538424180249178
10,121656539.99230825
321,33309656.271294416
2,1, 7,21, 0,11,30.00,40.00,SummerDesignDay
8,16.644108396469087
10,122512633.44365035
321,41973039.22974873
2,1, 7,21, 0,11,40.00,50.00,SummerDesignDay
8,16.749376736593655
10,123339919.42698086
321,33536172.984872
2,1, 7,21, 0,11,50.00,60.00,SummerDesignDay
8,16.854232613237156
10,124147635.74622672
321,36411141.02360362
2,1, 7,21, 0,11, 0.00,60.00,SummerDesignDay
555,23.99896339967192
595,23.998895015018659
635,24.08208212329367
675,23.99860991449611
715,23.882165001302167
2,1, 7,21, 0,12, 0.00,10.00,SummerDesignDay
8,16.92390823520069
10,122676626.7563599
321,42253258.21449311
2,1, 7,21, 0,12,10.00,20.00,SummerDesignDay
8,16.99340178950456
10,123166928.2546871
321,33586696.52496466
2,1, 7,21, 0,12,20.00,30.00,SummerDesignDay
8,17.06272006743463
10,123674943.31032269
321,36879409.39097439
2,1, 7,21, 0,12,30.00,40.00,SummerDesignDay
8,17.131853229172639
10,124222183.06443078
321,42284477.643739838
2,1, 7,21, 0,12,40.00,50.00,SummerDesignDay
8,17.200807172194087
10,124772734.12139891
321,35044454.877347949
2,1, 7,21, 0,12,50.00,60.00,SummerDesignDay
8,17.269582116758607
10,125664902.6884384
321,35421701.728553
2,1, 7,21, 0,12, 0.00,60.00,SummerDesignDay
555,23.9988728759524
595,23.998883380469186
635,24.155574325268817
675,23.998716364956125
715,23.881448798769509
2,1, 7,21, 0,13, 0.00,10.00,SummerDesignDay
8,17.32447360221357
10,123316460.21435933
321,42159205.94526867
2,1, 7,21, 0,13,10.00,20.00,SummerDesignDay
8,17.379251291230806
10,123424407.46492359
321,35140986.238231558
2,1, 7,21, 0,13,20.00,30.00,SummerDesignDay
8,17.433921312061729
10,123778132.69279084
321,35093538.6568315
2,1, 7,21, 0,13,30.00,40.00,SummerDesignDay
8,17.488473222557489
10,124274787.51097343
321,42145407.86724963
2,1, 7,21, 0,13,40.00,50.00,SummerDesignDay
8,17.542913447755134
10,124744873.86185928
321,34597607.64892458
2,1, 7,21, 0,13,50.00,60.00,SummerDesignDay
8,17.59724609886134
10,125224861.6796077
321,35636889.78402168
2,1, 7,21, 0,13, 0.00,60.00,SummerDesignDay
555,23.99901482872522
595,23.998943447660936
635,24.403026518793327
675,23.99863384442823
715,23.879660826949306
2,1, 7,21, 0,14, 0.00,10.00,SummerDesignDay
8,17.6311450462694
10,125537001.13559647
321,43430615.29884177
2,1, 7,21, 0,14,10.00,20.00,SummerDesignDay
8,17.665000449016245
10,126059826.48465406
321,43577449.40929537
2,1, 7,21, 0,14,20.00,30.00,SummerDesignDay
8,17.698812743128934
10,126367668.41610493
321,36821291.884494449
2,1, 7,21, 0,14,30.00,40.00,SummerDesignDay
8,17.732582050940107
10,126680880.21705124
321,35799917.457163218
2,1, 7,21, 0,14,40.00,50.00,SummerDesignDay
8,17.766307345121004
10,126998200.86292604
321,43581914.562052208
2,1, 7,21, 0,14,50.00,60.00,SummerDesignDay
8,17.79999023167558
10,127312610.94969167
321,43578799.017477
2,1, 7,21, 0,14, 0.00,60.00,SummerDesignDay
555,23.99906290989553
595,23.998997204256427
635,24.72241718006497
675,23.998523132791659
715,23.879141066068738
2,1, 7,21, 0,15, 0.00,10.00,SummerDesignDay
8,17.79999023167558
10,128009147.99336474
321,38034123.22942079
2,1, 7,21, 0,15,10.00,20.00,SummerDesignDay
8,17.79999023167558
10,127816859.01528919
321,32325917.03462487
2,1, 7,21, 0,15,20.00,30.00,SummerDesignDay
8,17.79999023167558
10,127834908.75522098
321,42145212.852192249
2,1, 7,21, 0,15,30.00,40.00,SummerDesignDay
8,17.79999023167558
10,127845142.30976768
321,37369054.29917374
2,1, 7,21, 0,15,40.00,50.00,SummerDesignDay
8,17.79999023167558
10,127851089.18170884
321,32865778.401547538
2,1, 7,21, 0,15,50.00,60.00,SummerDesignDay
8,17.79999023167558
10,127864105.8798109
321,42145224.45805251
2,1, 7,21, 0,15, 0.00,60.00,SummerDesignDay
555,23.998856339431243
595,24.042682862588739
635,24.889660306806975
675,23.998504086922897
715,23.879243519524395
2,1, 7,21, 0,16, 0.00,10.00,SummerDesignDay
8,17.759562446305357
10,127532668.56431408
321,28993408.267233727
2,1, 7,21, 0,16,10.00,20.00,SummerDesignDay
8,17.71907809634183
10,126977040.50132363
321,39103418.738370377
2,1, 7,21, 0,16,20.00,30.00,SummerDesignDay
8,17.67853788661001
10,126649722.63477701
321,30993063.355606706
2,1, 7,21, 0,16,30.00,40.00,SummerDesignDay
8,17.63791796367351
10,126311435.98426141
321,37008135.14001748
2,1, 7,21, 0,16,40.00,50.00,SummerDesignDay
8,17.59724609886134
10,125981747.98011653
321,33088376.48297138
2,1, 7,21, 0,16,50.00,60.00,SummerDesignDay
8,17.55650676726033
10,125640562.06220007
321,34910963.52311604
2,1, 7,21, 0,16, 0.00,60.00,SummerDesignDay
555,23.998704011929747
595,24.05363862510497
635,24.8760062372739
675,23.99850083013958
715,23.87945083266324
2,1, 7,21, 0,17, 0.00,10.00,SummerDesignDay
8,17.50209486331892
10,125352302.060387
321,26193365.893246898
2,1, 7,21, 0,17,10.00,20.00,SummerDesignDay
8,17.447570789624618
10,124709458.26398547
321,39131772.25082996
2,1, 7,21, 0,17,20.00,30.00,SummerDesignDay
8,17.392929544208135
10,124311631.60230869
321,26061990.969590419
2,1, 7,21, 0,17,30.00,40.00,SummerDesignDay
8,17.33818013976614
10,123939025.89971
321,26080389.817933479
2,1, 7,21, 0,17,40.00,50.00,SummerDesignDay
8,17.283317298559309
10,123567611.25532103
321,35143683.2763495
2,1, 7,21, 0,17,50.00,60.00,SummerDesignDay
8,17.22833552437677
10,123195914.11037195
321,30056577.485781056
2,1, 7,21, 0,17, 0.00,60.00,SummerDesignDay
555,23.99876651487851
595,23.999059898317996
635,24.72111663311165
675,23.998514781773797
715,23.879686037690687
2,1, 7,21, 0,18, 0.00,10.00,SummerDesignDay
8,17.159453019160176
10,119382616.30726764
321,25138955.808620383
2,1, 7,21, 0,18,10.00,20.00,SummerDesignDay
8,17.090391773337136
10,118715838.38001083
321,25044595.356684928
2,1, 7,21, 0,18,20.00,30.00,SummerDesignDay
8,17.021151077964786
10,118207383.7887563
321,25047020.088817337
2,1, 7,21, 0,18,30.00,40.00,SummerDesignDay
8,16.951729380464653
10,117689806.70572959
321,25049190.714554818
2,1, 7,21, 0,18,40.00,50.00,SummerDesignDay
8,16.882126503829249
10,117182309.75166773
321,25051341.173661308
2,1, 7,21, 0,18,50.00,60.00,SummerDesignDay
8,16.812341807494034
10,116672037.8223504
321,25053478.552289819
2,1, 7,21, 0,18, 0.00,60.00,SummerDesignDay
555,23.99895917058343
595,23.99859663047688
635,24.37303431851912
675,23.9984121564129
715,23.87996027752286
2,1, 7,21, 0,19, 0.00,10.00,SummerDesignDay
8,16.707321072823203
10,93784917.77714537
321,24326474.47434025
2,1, 7,21, 0,19,10.00,20.00,SummerDesignDay
8,16.601881826644556
10,91962753.50513873
321,24248020.841202335
2,1, 7,21, 0,19,20.00,30.00,SummerDesignDay
8,16.496030555252849
10,90926606.29644963
321,24249682.57784662
2,1, 7,21, 0,19,30.00,40.00,SummerDesignDay
8,16.389760181474104
10,89912173.29804844
321,24251556.89645012
2,1, 7,21, 0,19,40.00,50.00,SummerDesignDay
8,16.283067654262039
10,88917854.10577202
321,14317542.306566898
2,1, 7,21, 0,19,50.00,60.00,SummerDesignDay
8,16.17595057957811
10,87930972.45018047
321,22054150.055211899
2,1, 7,21, 0,19, 0.00,60.00,SummerDesignDay
555,23.99959371836818
595,23.999427020285564
635,24.06463308299404
675,23.998353089942034
715,23.879757436847084
2,1, 7,21, 0,20, 0.00,10.00,SummerDesignDay
8,16.097123145563505
10,76369311.2527072
321,25104786.01822677
2,1, 7,21, 0,20,10.00,20.00,SummerDesignDay
8,16.018070242471564
10,75789845.52773954
321,27829327.11723575
2,1, 7,21, 0,20,20.00,30.00,SummerDesignDay
8,15.938779752340516
10,75026457.88061628
321,31391095.908534007
2,1, 7,21, 0,20,30.00,40.00,SummerDesignDay
8,15.85926152575189
10,74168496.82468695
321,28970659.790600417
2,1, 7,21, 0,20,40.00,50.00,SummerDesignDay
8,15.779503718563929
10,73372493.55861515
321,25180232.12344457
2,1, 7,21, 0,20,50.00,60.00,SummerDesignDay
8,15.699515709672767
10,72555803.44107746
321,25184169.514085596
2,1, 7,21, 0,20, 0.00,60.00,SummerDesignDay
555,23.999925177270798
595,23.99984637298309
635,23.986493762630805
675,23.998417851341928
715,23.883078119095953
2,1, 7,21, 0,21, 0.00,10.00,SummerDesignDay
8,15.63389147320404
10,74314270.28067936
321,26606361.737853815
2,1, 7,21, 0,21,10.00,20.00,SummerDesignDay
8,15.56810827419793
10,73919051.15464548
321,40170827.77467571
2,1, 7,21, 0,21,20.00,30.00,SummerDesignDay
8,15.502170882753524
10,73561949.70925214
321,26762988.53461252
2,1, 7,21, 0,21,30.00,40.00,SummerDesignDay
8,15.436068032613852
10,73201356.82796405
321,37961937.1828964
2,1, 7,21, 0,21,40.00,50.00,SummerDesignDay
8,15.369804371206009
10,72875899.08066418
321,28971129.398328946
2,1, 7,21, 0,21,50.00,60.00,SummerDesignDay
8,15.303384603594449
10,72550618.67801382
321,31809867.636640937
2,1, 7,21, 0,21, 0.00,60.00,SummerDesignDay
555,23.91225985519793
595,23.99992317015577
635,23.924894976604376
675,23.99849325173599
715,23.88463809403982
2,1, 7,21, 0,22, 0.00,10.00,SummerDesignDay
8,15.236797685071274
10,56366614.993219818
321,34794688.20411926
2,1, 7,21, 0,22,10.00,20.00,SummerDesignDay
8,15.170047891787942
10,56139003.05305322
321,26492120.44699701
2,1, 7,21, 0,22,20.00,30.00,SummerDesignDay
8,15.103134826860483
10,55893249.91933657
321,39753567.38943953
2,1, 7,21, 0,22,30.00,40.00,SummerDesignDay
8,15.036063385178485
10,55638659.84740681
321,26477889.59446246
2,1, 7,21, 0,22,40.00,50.00,SummerDesignDay
8,14.968821767219835
10,55380910.85984983
321,28686900.26263836
2,1, 7,21, 0,22,50.00,60.00,SummerDesignDay
8,14.90141525878635
10,55112541.41719954
321,37555778.45991838
2,1, 7,21, 0,22, 0.00,60.00,SummerDesignDay
555,23.018913157386778
595,23.76618538881866
635,23.138088417492168
675,23.998551496828289
715,23.885283562824389
2,1, 7,21, 0,23, 0.00,10.00,SummerDesignDay
8,14.848873673278373
10,53196283.367362838
321,25995667.95796656
2,1, 7,21, 0,23,10.00,20.00,SummerDesignDay
8,14.796237168136719
10,52938236.69670728
321,25962024.576942177
2,1, 7,21, 0,23,20.00,30.00,SummerDesignDay
8,14.743494321455645
10,52696550.22424548
321,38936800.93899791
2,1, 7,21, 0,23,30.00,40.00,SummerDesignDay
8,14.690649975253665
10,52466701.77003762
321,25933469.80421392
2,1, 7,21, 0,23,40.00,50.00,SummerDesignDay
8,14.637704281233117
10,52220809.88199073
321,25949590.27008731
2,1, 7,21, 0,23,50.00,60.00,SummerDesignDay
8,14.584656914839757
10,52455524.285023618
321,32241283.091094756
2,1, 7,21, 0,23, 0.00,60.00,SummerDesignDay
555,22.114182917014305
595,23.16174923164785
635,22.12633853483794
675,23.99861166032829
715,23.88499903117304
2,1, 7,21, 0,24, 0.00,10.00,SummerDesignDay
8,14.531507212058875
10,46580964.30342119
321,34130990.407354909
2,1, 7,21, 0,24,10.00,20.00,SummerDesignDay
8,14.47825496413355
10,46752694.39321099
321,25938393.751466909
2,1, 7,21, 0,24,20.00,30.00,SummerDesignDay
8,14.4249000133173
10,46512498.46935374
321,25956997.64166517
2,1, 7,21, 0,24,30.00,40.00,SummerDesignDay
8,14.371447531304272
10,46296815.33537445
321,36714697.589554999
2,1, 7,21, 0,24,40.00,50.00,SummerDesignDay
8,14.31788619902223
10,46070199.976612489
321,28202669.00073249
2,1, 7,21, 0,24,50.00,60.00,SummerDesignDay
8,14.264220970176066
10,45851752.532459769
321,26089081.13343745
2,1, 7,21, 0,24, 0.00,60.00,SummerDesignDay
555,21.31071405234469
595,22.451730679826878
635,21.429564528728425
675,23.99866044739098
715,23.883160389089104
3,1, 7,21, 0,SummerDesignDay
556,51.4490056162725,45.45951436760752,20,40,61.431005447653067, 6,20
596,49.615088548729229,44.67276286203453,10,50,56.66974739527234, 6,50
636,51.590493903654259,45.833302350723247,10,10,60.58607677450565, 6,30
676,48.54408023168039,46.51305545292718,21,60,51.489822998646939, 6,20
716,62.836922659748747,57.74347686483403,22,60,68.38336873856189,10,20
4,1, 7
7,22.2505,16.5,21, 5,60,28.9,21,14,60
1,FORT MCMURRAY AP ANN HTG 99.6% CONDNS DB,  56.65,-111.22,  -7.00, 369.10
2,1, 1,21, 0, 1, 0.00,10.00,WinterDesignDay
8,-36.2
10,36225859.80301173
321,723745950.8795049
2,1, 1,21, 0, 1,10.00,20.00,WinterDesignDay
8,-36.2
10,36180069.6963523
321,723750351.3433097
2,1, 1,21, 0, 1,20.00,30.00,WinterDesignDay
8,-36.2
10,36189501.25136621
321,723907062.2954295
2,1, 1,21, 0, 1,30.00,40.00,WinterDesignDay
8,-36.2
10,36182698.843365918
321,724024521.4804481
2,1, 1,21, 0, 1,40.00,50.00,WinterDesignDay
8,-36.2
10,36183316.65449373
321,724127574.8370781
2,1, 1,21, 0, 1,50.00,60.00,WinterDesignDay
8,-36.2
10,36182227.43709232
321,731626065.4706599
2,1, 1,21, 0, 1, 0.00,60.00,WinterDesignDay
555,17.999987992031973
595,17.999979776638566
635,17.595519821236427
675,21.998705718903854
715,23.88281234060275
2,1, 1,21, 0, 2, 0.00,10.00,WinterDesignDay
8,-36.2
10,34661818.86305904
321,707395955.5596662
2,1, 1,21, 0, 2,10.00,20.00,WinterDesignDay
8,-36.2
10,34661818.86305904
321,712584115.824628
2,1, 1,21, 0, 2,20.00,30.00,WinterDesignDay
8,-36.2
10,34661818.86305904
321,712449294.8051398
2,1, 1,21, 0, 2,30.00,40.00,WinterDesignDay
8,-36.2
10,34661818.86305904
321,696752175.9716599
2,1, 1,21, 0, 2,40.00,50.00,WinterDesignDay
8,-36.2
10,34661818.86305904
321,712982523.4476872
2,1, 1,21, 0, 2,50.00,60.00,WinterDesignDay
8,-36.2
10,34661818.86305904
321,711646508.0555631
2,1, 1,21, 0, 2, 0.00,60.00,WinterDesignDay
555,17.999991965924108
595,17.999989104137027
635,17.685957496160794
675,20.779099273116136
715,23.708155142359748
2,1, 1,21, 0, 3, 0.00,10.00,WinterDesignDay
8,-36.2
10,34661818.86305904
321,699770132.6586959
2,1, 1,21, 0, 3,10.00,20.00,WinterDesignDay
8,-36.2
10,34661818.86305904
321,700909189.6687261
2,1, 1,21, 0, 3,20.00,30.00,WinterDesignDay
8,-36.2
10,34661818.86305904
321,710458151.2129375
2,1, 1,21, 0, 3,30.00,40.00,WinterDesignDay
8,-36.2
10,34661818.86305904
321,700068098.9040845
2,1, 1,21, 0, 3,40.00,50.00,WinterDesignDay
8,-36.2
10,34661818.86305904
321,711635741.2959887
2,1, 1,21, 0, 3,50.00,60.00,WinterDesignDay
8,-36.2
10,34661818.86305904
321,700192286.8644106
2,1, 1,21, 0, 3, 0.00,60.00,WinterDesignDay
555,17.999989977149636
595,17.999988201131079
635,17.594766911377186
675,20.18441663409453
715,23.391499956893257
2,1, 1,21, 0, 4, 0.00,10.00,WinterDesignDay
8,-36.2
10,33165581.315154256
321,699946826.0712873
2,1, 1,21, 0, 4,10.00,20.00,WinterDesignDay
8,-36.2
10,33165581.315154256
321,699975979.7089021
2,1, 1,21, 0, 4,20.00,30.00,WinterDesignDay
8,-36.2
10,33165581.315154256
321,704411751.4348492
2,1, 1,21, 0, 4,30.00,40.00,WinterDesignDay
8,-36.2
10,33165581.315154256
321,706843558.4953877
2,1, 1,21, 0, 4,40.00,50.00,WinterDesignDay
8,-36.2
10,33165581.315154256
321,700125813.5848787
2,1, 1,21, 0, 4,50.00,60.00,WinterDesignDay
8,-36.2
10,33165581.315154256
321,700179912.4268817
2,1, 1,21, 0, 4, 0.00,60.00,WinterDesignDay
555,17.999990266215656
595,17.999989298083255
635,17.59439800450387
675,20.084140532423907
715,22.917209801131638
2,1, 1,21, 0, 5, 0.00,10.00,WinterDesignDay
8,-36.2
10,33165581.315154256
321,700231811.0382208
2,1, 1,21, 0, 5,10.00,20.00,WinterDesignDay
8,-36.2
10,33165581.315154256
321,700279015.739951
2,1, 1,21, 0, 5,20.00,30.00,WinterDesignDay
8,-36.2
10,33165581.315154256
321,700322591.0900008
2,1, 1,21, 0, 5,30.00,40.00,WinterDesignDay
8,-36.2
10,33165581.315154256
321,700361330.9514518
2,1, 1,21, 0, 5,40.00,50.00,WinterDesignDay
8,-36.2
10,33165581.315154256
321,703299035.3471854
2,1, 1,21, 0, 5,50.00,60.00,WinterDesignDay
8,-36.2
10,33165581.315154256
321,708646659.428981
2,1, 1,21, 0, 5, 0.00,60.00,WinterDesignDay
555,17.999990468866824
595,17.999989717014839
635,17.59404303173756
675,20.047987428426798
715,22.535327806695788
2,1, 1,21, 0, 6, 0.00,10.00,WinterDesignDay
8,-36.2
10,33165581.315154256
321,700736973.5387124
2,1, 1,21, 0, 6,10.00,20.00,WinterDesignDay
8,-36.2
10,33165581.315154256
321,700815956.6975589
2,1, 1,21, 0, 6,20.00,30.00,WinterDesignDay
8,-36.2
10,33165581.315154256
321,712306641.1835103
2,1, 1,21, 0, 6,30.00,40.00,WinterDesignDay
8,-36.2
10,33165581.315154256
321,700833510.2191119
2,1, 1,21, 0, 6,40.00,50.00,WinterDesignDay
8,-36.2
10,33165581.315154256
321,712349933.4847283
2,1, 1,21, 0, 6,50.00,60.00,WinterDesignDay
8,-36.2
10,33165581.315154256
321,700848786.9855667
2,1, 1,21, 0, 6, 0.00,60.00,WinterDesignDay
555,17.999990574483964
595,17.99998988227242
635,17.59382682141064
675,20.0313603686739
715,22.449135871177807
2,1, 1,21, 0, 7, 0.00,10.00,WinterDesignDay
8,-36.2
10,34661818.86305904
321,795130479.423607
2,1, 1,21, 0, 7,10.00,20.00,WinterDesignDay
8,-36.2
10,34661818.86305904
321,740171997.664947
2,1, 1,21, 0, 7,20.00,30.00,WinterDesignDay
8,-36.2
10,34661818.86305904
321,740892156.652041
2,1, 1,21, 0, 7,30.00,40.00,WinterDesignDay
8,-36.2
10,34661818.86305904
321,738801708.4883251
2,1, 1,21, 0, 7,40.00,50.00,WinterDesignDay
8,-36.2
10,34661818.86305904
321,734392679.5705363
2,1, 1,21, 0, 7,50.00,60.00,WinterDesignDay
8,-36.2
10,34661818.86305904
321,729249154.1687348
2,1, 1,21, 0, 7, 0.00,60.00,WinterDesignDay
555,19.96530801477832
595,19.957284226226446
635,17.679022971426077
675,20.040680319091249
715,22.784866641536657
2,1, 1,21, 0, 8, 0.00,10.00,WinterDesignDay
8,-36.2
10,46776093.041210267
321,824360410.9315355
2,1, 1,21, 0, 8,10.00,20.00,WinterDesignDay
8,-36.2
10,46776093.041210267
321,783020549.9309505
2,1, 1,21, 0, 8,20.00,30.00,WinterDesignDay
8,-36.2
10,46776093.041210267
321,785941496.8544946
2,1, 1,21, 0, 8,30.00,40.00,WinterDesignDay
8,-36.2
10,46776093.041210267
321,755265207.1358346
2,1, 1,21, 0, 8,40.00,50.00,WinterDesignDay
8,-36.2
10,46776093.041210267
321,758215041.466018
2,1, 1,21, 0, 8,50.00,60.00,WinterDesignDay
8,-36.2
10,46837780.5204285
321,764022102.1716726
2,1, 1,21, 0, 8, 0.00,60.00,WinterDesignDay
555,21.970372714724687
595,21.947073852377675
635,19.244753031613177
675,20.123310219290706
715,23.53269283035604
2,1, 1,21, 0, 9, 0.00,10.00,WinterDesignDay
8,-36.2
10,80991387.11322212
321,798357964.7542874
2,1, 1,21, 0, 9,10.00,20.00,WinterDesignDay
8,-36.2
10,81049293.42032939
321,774204716.3623321
2,1, 1,21, 0, 9,20.00,30.00,WinterDesignDay
8,-36.2
10,81064706.64715018
321,768699175.546638
2,1, 1,21, 0, 9,30.00,40.00,WinterDesignDay
8,-36.2
10,81086352.81070608
321,750483236.9184796
2,1, 1,21, 0, 9,40.00,50.00,WinterDesignDay
8,-36.2
10,81062807.74834045
321,752345523.8756409
2,1, 1,21, 0, 9,50.00,60.00,WinterDesignDay
8,-36.2
10,81081183.81618876
321,750089848.9735471
2,1, 1,21, 0, 9, 0.00,60.00,WinterDesignDay
555,21.999799804463917
595,21.99983607601932
635,21.125222453264269
675,21.984141572153946
715,23.915947392070167
2,1, 1,21, 0,10, 0.00,10.00,WinterDesignDay
8,-36.2
10,91396669.13693552
321,735435376.8170724
2,1, 1,21, 0,10,10.00,20.00,WinterDesignDay
8,-36.2
10,91373012.57827881
321,733169788.7893517
2,1, 1,21, 0,10,20.00,30.00,WinterDesignDay
8,-36.2
10,91377881.97753868
321,731940428.1183581
2,1, 1,21, 0,10,30.00,40.00,WinterDesignDay
8,-36.2
10,91377532.1595886
321,731696293.9189522
2,1, 1,21, 0,10,40.00,50.00,WinterDesignDay
8,-36.2
10,91378950.1791883
321,731181446.667852
2,1, 1,21, 0,10,50.00,60.00,WinterDesignDay
8,-36.2
10,91379742.56702793
321,730148347.7762865
2,1, 1,21, 0,10, 0.00,60.00,WinterDesignDay
555,21.999271833502978
595,22.218229989283249
635,21.385177537391525
675,21.998626649714386
715,23.879037341502185
2,1, 1,21, 0,11, 0.00,10.00,WinterDesignDay
8,-36.2
10,91365279.3693483
321,724446163.1910116
2,1, 1,21, 0,11,10.00,20.00,WinterDesignDay
8,-36.2
10,91344570.58930673
321,723367153.5310747
2,1, 1,21, 0,11,20.00,30.00,WinterDesignDay
8,-36.2
10,91345515.31093996
321,723396246.3279213
2,1, 1,21, 0,11,30.00,40.00,WinterDesignDay
8,-36.2
10,91345601.30626144
321,727861212.1897665
2,1, 1,21, 0,11,40.00,50.00,WinterDesignDay
8,-36.2
10,91345926.06277001
321,727728333.285197
2,1, 1,21, 0,11,50.00,60.00,WinterDesignDay
8,-36.2
10,91346118.81563127
321,727627561.3107003
2,1, 1,21, 0,11, 0.00,60.00,WinterDesignDay
555,21.99901131872323
595,22.473517209460814
635,21.39184602078689
675,21.998597989794047
715,23.87922156101492
2,1, 1,21, 0,12, 0.00,10.00,WinterDesignDay
8,-36.2
10,89823659.17283222