Program Version,EnergyPlus, Version 8.9.0-eba93e8e1b, YMD=2019.04.04 18:00
1,5,Environment Title[],Latitude[deg],Longitude[deg],Time Zone[],Elevation[m]
2,8,Day of Simulation[],Month[],Day of Month[],DST Indicator[1=yes 0=no],Hour[],StartMinute[],EndMinute[],DayType
3,5,Cumulative Day of Simulation[],Month[],Day of Month[],DST Indicator[1=yes 0=no],DayType  ! When Daily Report Variables Requested
4,2,Cumulative Days of Simulation[],Month[]  ! When Monthly Report Variables Requested
5,1,Cumulative Days of Simulation[] ! When Run Period Report Variables Requested
6,1,Calendar Year of Simulation[] ! When Annual Report Variables Requested
7,9,Environment,Site Outdoor Air Drybulb Temperature [C] !Monthly [Value,Min,Day,Hour,Minute,Max,Day,Hour,Minute]
8,1,Environment,Site Outdoor Air Wetbulb Temperature [C] !TimeStep
268,1,STORAGE ROOM > 100 M2-SCH-C-SPACE FUNCTION ZN,Zone Air Temperature [C] !Hourly
269,7,STORAGE ROOM > 100 M2-SCH-C-SPACE FUNCTION ZN,Zone Air Relative Humidity [%] !Daily [Value,Min,Hour,Minute,Max,Hour,Minute]
308,1,STORAGE ROOM > 100 M2-SCH-D-SPACE FUNCTION ZN,Zone Air Temperature [C] !Hourly
309,7,STORAGE ROOM > 100 M2-SCH-D-SPACE FUNCTION ZN,Zone Air Relative Humidity [%] !Daily [Value,Min,Hour,Minute,Max,Hour,Minute]
348,1,STORAGE ROOM > 100 M2-SCH-E-SPACE FUNCTION ZN,Zone Air Temperature [C] !Hourly
349,7,STORAGE ROOM > 100 M2-SCH-E-SPACE FUNCTION ZN,Zone Air Relative Humidity [%] !Daily [Value,Min,Hour,Minute,Max,Hour,Minute]
388,1,STORAGE ROOM > 100 M2-SCH-F-SPACE FUNCTION ZN,Zone Air Temperature [C] !Hourly
389,7,STORAGE ROOM > 100 M2-SCH-F-SPACE FUNCTION ZN,Zone Air Relative Humidity [%] !Daily [Value,Min,Hour,Minute,Max,Hour,Minute]
428,1,STORAGE ROOM > 100 M2-SCH-G-SPACE FUNCTION ZN,Zone Air Temperature [C] !Hourly
429,7,STORAGE ROOM > 100 M2-SCH-G-SPACE FUNCTION ZN,Zone Air Relative Humidity [%] !Daily [Value,Min,Hour,Minute,Max,Hour,Minute]
10,1,Electricity:Facility [J] !TimeStep
579,1,DistrictCooling:Facility [J] !TimeStep
542,1,DistrictHeating:Facility [J] !TimeStep
End of Data Dictionary
1,FORT MCMURRAY AP ANN CLG .4% CONDNS DB=>MWB,  56.65,-111.22,  -7.00, 369.10
2,1, 7,21, 0, 1, 0.00,10.00,SummerDesignDay
8,14.218136923962174
10,5178381.252053703
542,0.0
579,0.0
2,1, 7,21, 0, 1,10.00,20.00,SummerDesignDay
8,14.171982153293495
10,5178381.252053703
542,0.0
579,0.0
2,1, 7,21, 0, 1,20.00,30.00,SummerDesignDay
8,14.125744780286427
10,5178381.252053703
542,0.0
579,0.0
2,1, 7,21, 0, 1,30.00,40.00,SummerDesignDay
8,14.079436086331978
10,5178381.252053703
542,0.0
579,0.0
2,1, 7,21, 0, 1,40.00,50.00,SummerDesignDay
8,14.033050387896898
10,5178381.252053703
542,0.0
579,0.0
2,1, 7,21, 0, 1,50.00,60.00,SummerDesignDay
8,13.986581233564835
10,5178381.252053703
542,0.0
579,0.0
2,1, 7,21, 0, 1, 0.00,60.00,SummerDesignDay
268,21.99884774705492
308,22.083255639017599
348,21.822539828803334
388,23.09471618790442
428,23.533752268417016
2,1, 7,21, 0, 2, 0.00,10.00,SummerDesignDay
8,13.95555882260429
10,2346852.5871376397
542,0.0
579,0.0
2,1, 7,21, 0, 2,10.00,20.00,SummerDesignDay
8,13.924507755336454
10,2346852.5871376397
542,0.0
579,0.0
2,1, 7,21, 0, 2,20.00,30.00,SummerDesignDay
8,13.893416042989206
10,2346852.5871376397
542,0.0
579,0.0
2,1, 7,21, 0, 2,30.00,40.00,SummerDesignDay
8,13.862289589689029
10,2346852.5871376397
542,0.0
579,0.0
2,1, 7,21, 0, 2,40.00,50.00,SummerDesignDay
8,13.831134407608739
10,2346852.5871376397
542,0.0
579,0.0
2,1, 7,21, 0, 2,50.00,60.00,SummerDesignDay
8,13.799938415548118
10,2346852.5871376397
542,0.0
579,0.0
2,1, 7,21, 0, 2, 0.00,60.00,SummerDesignDay
268,21.628459201353114
308,21.61435096687492
348,21.49278111196457
388,22.417633672705958
428,22.5643130135105
2,1, 7,21, 0, 3, 0.00,10.00,SummerDesignDay
8,13.776521671948676
10,2346852.5871376397
542,0.0
579,0.0
2,1, 7,21, 0, 3,10.00,20.00,SummerDesignDay
8,13.753085235778466
10,2346852.5871376397
542,0.0
579,0.0
2,1, 7,21, 0, 3,20.00,30.00,SummerDesignDay
8,13.729636002354969
10,2346852.5871376397
542,0.0
579,0.0
2,1, 7,21, 0, 3,30.00,40.00,SummerDesignDay
8,13.706147375533054
10,2346852.5871376397
542,0.0
579,0.0
2,1, 7,21, 0, 3,40.00,50.00,SummerDesignDay
8,13.682651961920304
10,2346852.5871376397
542,0.0
579,0.0
2,1, 7,21, 0, 3,50.00,60.00,SummerDesignDay
8,13.659136670643687
10,2346852.5871376397
542,0.0
579,0.0
2,1, 7,21, 0, 3, 0.00,60.00,SummerDesignDay
268,21.305910778335844
308,21.27124611068391
348,21.217951165473445
388,21.950229670340563
428,21.81178610798129
2,1, 7,21, 0, 4, 0.00,10.00,SummerDesignDay
8,13.63560137410855
10,1811157.9748562216
542,0.0
579,0.0
2,1, 7,21, 0, 4,10.00,20.00,SummerDesignDay
8,13.612040802606578
10,1811157.9748562216
542,0.0
579,0.0
2,1, 7,21, 0, 4,20.00,30.00,SummerDesignDay
8,13.58846620506876
10,1811157.9748562216
542,0.0
579,0.0
2,1, 7,21, 0, 4,30.00,40.00,SummerDesignDay
8,13.56487178447336
10,1811157.9748562216
542,0.0
579,0.0
2,1, 7,21, 0, 4,40.00,50.00,SummerDesignDay
8,13.541257354069103
10,1811157.9748562216
542,0.0
579,0.0
2,1, 7,21, 0, 4,50.00,60.00,SummerDesignDay
8,13.517617463812285
10,1811157.9748562216
542,0.0
579,0.0
2,1, 7,21, 0, 4, 0.00,60.00,SummerDesignDay
268,21.040433119831403
308,21.01013146945246
348,20.993005939565469
388,21.562970985199667
428,21.40690013247074
2,1, 7,21, 0, 5, 0.00,10.00,SummerDesignDay
8,13.50185415824011
10,1811157.9748562216
542,0.0
579,0.0
2,1, 7,21, 0, 5,10.00,20.00,SummerDesignDay
8,13.486076034032447
10,1811157.9748562216
542,0.0
579,0.0
2,1, 7,21, 0, 5,20.00,30.00,SummerDesignDay
8,13.470289340350983
10,1811157.9748562216
542,0.0
579,0.0
2,1, 7,21, 0, 5,30.00,40.00,SummerDesignDay
8,13.454493322631063
10,1811157.9748562216
542,0.0
579,0.0
2,1, 7,21, 0, 5,40.00,50.00,SummerDesignDay
8,13.438688835118548
10,1811157.9748562216
542,0.0
579,0.0
2,1, 7,21, 0, 5,50.00,60.00,SummerDesignDay
8,13.422888173889437
10,1811157.9748562216
542,0.0
579,0.0
2,1, 7,21, 0, 5, 0.00,60.00,SummerDesignDay
268,20.823756105048174
308,20.806090910195115
348,20.80465974610617
388,21.255031645046484
428,21.142660817174215
2,1, 7,21, 0, 6, 0.00,10.00,SummerDesignDay
8,13.438688835118548
10,1811157.9748562216
542,0.0
579,0.0
2,1, 7,21, 0, 6,10.00,20.00,SummerDesignDay
8,13.454493322631063
10,1811157.9748562216
542,0.0
579,0.0
2,1, 7,21, 0, 6,20.00,30.00,SummerDesignDay
8,13.470289340350983
10,1811157.9748562216
542,0.0
579,0.0
2,1, 7,21, 0, 6,30.00,40.00,SummerDesignDay
8,13.486076034032447
10,1811157.9748562216
542,0.0
579,0.0
2,1, 7,21, 0, 6,40.00,50.00,SummerDesignDay
8,13.50185415824011
10,1811157.9748562216
542,0.0
579,0.0
2,1, 7,21, 0, 6,50.00,60.00,SummerDesignDay
8,13.517617463812285
10,1811157.9748562216
542,0.0
579,0.0
2,1, 7,21, 0, 6, 0.00,60.00,SummerDesignDay
268,20.676991047703653
308,20.671937861166297
348,20.67631459463553
388,21.080299587066596
428,20.981936558219265
2,1, 7,21, 0, 7, 0.00,10.00,SummerDesignDay
8,13.572736920571789
10,3877408.6222274044
542,0.0
579,0.0
2,1, 7,21, 0, 7,10.00,20.00,SummerDesignDay
8,13.627748229152554
10,3877408.6222274044
542,0.0
579,0.0
2,1, 7,21, 0, 7,20.00,30.00,SummerDesignDay
8,13.682651961920304
10,3877408.6222274044
542,0.0
579,0.0
2,1, 7,21, 0, 7,30.00,40.00,SummerDesignDay
8,13.737448093244995
10,3877408.6222274044
542,0.0
579,0.0
2,1, 7,21, 0, 7,40.00,50.00,SummerDesignDay
8,13.792137011831216
10,3877408.6222274044
542,0.0
579,0.0
2,1, 7,21, 0, 7,50.00,60.00,SummerDesignDay
8,13.846719282840333
10,3877408.6222274044
542,0.0
579,0.0
2,1, 7,21, 0, 7, 0.00,60.00,SummerDesignDay
268,20.653749865424538
308,20.657426832051255
348,20.662719018507528
388,21.128986106194096
428,21.181897464095799
2,1, 7,21, 0, 8, 0.00,10.00,SummerDesignDay
8,13.978831900527043
10,7244631.899424886
542,0.0
579,0.0
2,1, 7,21, 0, 8,10.00,20.00,SummerDesignDay
8,14.110321014287419
10,7244631.899424886
542,0.0
579,0.0
2,1, 7,21, 0, 8,20.00,30.00,SummerDesignDay
8,14.241191509616986
10,7244631.899424886
542,0.0
579,0.0
2,1, 7,21, 0, 8,30.00,40.00,SummerDesignDay
8,14.371447531304272
10,7244631.899424886
542,0.0
579,0.0
2,1, 7,21, 0, 8,40.00,50.00,SummerDesignDay
8,14.501093766564925
10,7244631.899424886
542,0.0
579,0.0
2,1, 7,21, 0, 8,50.00,60.00,SummerDesignDay
8,14.630134792273804
10,7244631.899424886
542,0.0
579,0.0
2,1, 7,21, 0, 8, 0.00,60.00,SummerDesignDay
268,20.837887887046795
308,20.842547469995183
348,20.84034082434311
388,21.530991702182765
428,21.911676495149039
2,1, 7,21, 0, 9, 0.00,10.00,SummerDesignDay
8,14.773641492809972
10,16963662.72224489
542,54304514.3366774
579,0.0
2,1, 7,21, 0, 9,10.00,20.00,SummerDesignDay
8,14.91640948124148
10,16963662.72224489
542,0.0
579,0.0
2,1, 7,21, 0, 9,20.00,30.00,SummerDesignDay
8,15.05843890714102
10,16963662.72224489
542,530668.6016405627
579,0.0
2,1, 7,21, 0, 9,30.00,40.00,SummerDesignDay
8,15.199735893563798
10,16963662.72224489
542,563309.5060156768
579,0.0
2,1, 7,21, 0, 9,40.00,50.00,SummerDesignDay
8,15.340306256439395
10,16963662.72224489
542,0.0
579,0.0
2,1, 7,21, 0, 9,50.00,60.00,SummerDesignDay
8,15.48015101768072
10,16963662.72224489
542,0.0
579,0.0
2,1, 7,21, 0, 9, 0.00,60.00,SummerDesignDay
268,22.307665577372036
308,22.19486409954807
348,22.249658037572968
388,22.275728182686718
428,22.672310635904407
2,1, 7,21, 0,10, 0.00,10.00,SummerDesignDay
8,15.60467292907716
10,23570562.940382374
542,0.0
579,0.0
2,1, 7,21, 0,10,10.00,20.00,SummerDesignDay
8,15.72862731650033
10,23570562.940382374
542,0.0
579,0.0
2,1, 7,21, 0,10,20.00,30.00,SummerDesignDay
8,15.852017409284228
10,23570562.940382374
542,0.0
579,0.0
2,1, 7,21, 0,10,30.00,40.00,SummerDesignDay
8,15.974848118364367
10,23570562.940382374
542,0.0
579,0.0
2,1, 7,21, 0,10,40.00,50.00,SummerDesignDay
8,16.097123145563505
10,23570562.940382374
542,0.0
579,5587348.053028767
2,1, 7,21, 0,10,50.00,60.00,SummerDesignDay
8,16.218846351168599
10,23570562.940382374
542,0.0
579,15011731.333552113
2,1, 7,21, 0,10, 0.00,60.00,SummerDesignDay
268,23.488912968002468
308,23.461668887033345
348,23.350806608230699
388,22.930725038490509
428,22.93729868808032
2,1, 7,21, 0,11, 0.00,10.00,SummerDesignDay
8,16.325793027093189
10,25101118.975472139
542,0.0
579,15423454.685322836
2,1, 7,21, 0,11,10.00,20.00,SummerDesignDay
8,16.432322158488288
10,25101118.975472139
542,0.0
579,16806744.917813817
2,1, 7,21, 0,11,20.00,30.00,SummerDesignDay
8,16.538424180249178
10,25101118.975472139
542,0.0
579,18082528.05519277
2,1, 7,21, 0,11,30.00,40.00,SummerDesignDay
8,16.644108396469087
10,25101118.975472139
542,0.0
579,18923407.43465761
2,1, 7,21, 0,11,40.00,50.00,SummerDesignDay
8,16.749376736593655
10,25101118.975472139
542,0.0
579,19694144.346597718
2,1, 7,21, 0,11,50.00,60.00,SummerDesignDay
8,16.854232613237156
10,25101118.975472139
542,0.0
579,21760553.92580858
2,1, 7,21, 0,11, 0.00,60.00,SummerDesignDay
268,23.999999415518034
308,23.999999686769319
348,23.99997818305002
388,23.73237642108562
428,23.228966833533549
2,1, 7,21, 0,12, 0.00,10.00,SummerDesignDay
8,16.92390823520069
10,24565424.36319072
542,0.0
579,22776483.890420319
2,1, 7,21, 0,12,10.00,20.00,SummerDesignDay
8,16.99340178950456
10,24565424.36319072
542,0.0
579,22804498.551375025
2,1, 7,21, 0,12,20.00,30.00,SummerDesignDay
8,17.06272006743463
10,24565424.36319072
542,0.0
579,23681869.078607859
2,1, 7,21, 0,12,30.00,40.00,SummerDesignDay
8,17.131853229172639
10,24565424.36319072
542,0.0
579,24307697.429241845
2,1, 7,21, 0,12,40.00,50.00,SummerDesignDay
8,17.200807172194087
10,24565424.36319072
542,0.0
579,24903468.15394363
2,1, 7,21, 0,12,50.00,60.00,SummerDesignDay
8,17.269582116758607
10,24565424.36319072
542,0.0
579,25478578.67466944
2,1, 7,21, 0,12, 0.00,60.00,SummerDesignDay
268,24.00000000000001
308,24.00000000000001
348,23.99999999999999
388,23.999991469170486
428,23.723606293875468
2,1, 7,21, 0,13, 0.00,10.00,SummerDesignDay
8,17.32447360221357
10,24029729.750909304
542,0.0
579,25616991.54965722
2,1, 7,21, 0,13,10.00,20.00,SummerDesignDay
8,17.379251291230806
10,24029729.750909304
542,0.0
579,27501795.605401156
2,1, 7,21, 0,13,20.00,30.00,SummerDesignDay
8,17.433921312061729
10,24029729.750909304
542,0.0
579,27478975.710205694
2,1, 7,21, 0,13,30.00,40.00,SummerDesignDay
8,17.488473222557489
10,24029729.750909304
542,0.0
579,28145186.057453958
2,1, 7,21, 0,13,40.00,50.00,SummerDesignDay
8,17.542913447755134
10,24029729.750909304
542,0.0
579,28712060.229771977
2,1, 7,21, 0,13,50.00,60.00,SummerDesignDay
8,17.59724609886134
10,24029729.750909304
542,0.0
579,29241705.24216266
2,1, 7,21, 0,13, 0.00,60.00,SummerDesignDay
268,24.000000000000005
308,24.000000000000005
348,24.000000000000019
388,23.999999999999998
428,23.998258239679143
2,1, 7,21, 0,14, 0.00,10.00,SummerDesignDay
8,17.6311450462694
10,24029729.750909304
542,0.0
579,29586416.819576414
2,1, 7,21, 0,14,10.00,20.00,SummerDesignDay
8,17.665000449016245
10,24029729.750909304
542,0.0
579,29925301.83705312
2,1, 7,21, 0,14,20.00,30.00,SummerDesignDay
8,17.698812743128934
10,24029729.750909304
542,0.0
579,30259181.683867027
2,1, 7,21, 0,14,30.00,40.00,SummerDesignDay
8,17.732582050940107
10,24029729.750909304
542,0.0
579,30588264.00485748
2,1, 7,21, 0,14,40.00,50.00,SummerDesignDay
8,17.766307345121004
10,24029729.750909304
542,0.0
579,30913103.12861791
2,1, 7,21, 0,14,50.00,60.00,SummerDesignDay
8,17.79999023167558
10,24029729.750909304
542,0.0
579,31234331.30345951
2,1, 7,21, 0,14, 0.00,60.00,SummerDesignDay
268,24.000000000000005
308,24.0
348,24.000000000000005
388,24.0
428,23.999999999999408
2,1, 7,21, 0,15, 0.00,10.00,SummerDesignDay
8,17.79999023167558
10,24029729.750909304
542,0.0
579,31000194.115902503
2,1, 7,21, 0,15,10.00,20.00,SummerDesignDay
8,17.79999023167558
10,24029729.750909304
542,0.0
579,30997577.677018789
2,1, 7,21, 0,15,20.00,30.00,SummerDesignDay
8,17.79999023167558
10,24029729.750909304
542,0.0
579,31000990.39957274
2,1, 7,21, 0,15,30.00,40.00,SummerDesignDay
8,17.79999023167558
10,24029729.750909304
542,0.0
579,31005052.235583839
2,1, 7,21, 0,15,40.00,50.00,SummerDesignDay
8,17.79999023167558
10,24029729.750909304
542,0.0
579,31009664.44974128
2,1, 7,21, 0,15,50.00,60.00,SummerDesignDay
8,17.79999023167558
10,24029729.750909304
542,0.0
579,31014355.773547479
2,1, 7,21, 0,15, 0.00,60.00,SummerDesignDay
268,24.0
308,24.00000000000001
348,24.00000000000001
388,24.0
428,24.0
2,1, 7,21, 0,16, 0.00,10.00,SummerDesignDay
8,17.759562446305357
10,24029729.750909304
542,0.0
579,30920501.59570941
2,1, 7,21, 0,16,10.00,20.00,SummerDesignDay
8,17.71907809634183
10,24029729.750909304
542,0.0
579,30577758.494124738
2,1, 7,21, 0,16,20.00,30.00,SummerDesignDay
8,17.67853788661001
10,24029729.750909304
542,0.0
579,30222067.263020483
2,1, 7,21, 0,16,30.00,40.00,SummerDesignDay
8,17.63791796367351
10,24029729.750909304
542,0.0
579,29866257.560538286
2,1, 7,21, 0,16,40.00,50.00,SummerDesignDay
8,17.59724609886134
10,24029729.750909304
542,0.0
579,29510216.620005955
2,1, 7,21, 0,16,50.00,60.00,SummerDesignDay
8,17.55650676726033
10,24029729.750909304
542,0.0
579,29153716.353629069
2,1, 7,21, 0,16, 0.00,60.00,SummerDesignDay
268,24.0
308,24.00000000000001
348,24.00000000000001
388,24.0
428,24.0
2,1, 7,21, 0,17, 0.00,10.00,SummerDesignDay
8,17.50209486331892
10,22499173.71581954
542,0.0
579,27593894.811505148
2,1, 7,21, 0,17,10.00,20.00,SummerDesignDay
8,17.447570789624618
10,22499173.71581954
542,0.0
579,26990016.465931674
2,1, 7,21, 0,17,20.00,30.00,SummerDesignDay
8,17.392929544208135
10,22499173.71581954
542,0.0
579,26500062.17671247
2,1, 7,21, 0,17,30.00,40.00,SummerDesignDay
8,17.33818013976614
10,22499173.71581954
542,0.0
579,25998788.54999866
2,1, 7,21, 0,17,40.00,50.00,SummerDesignDay
8,17.283317298559309
10,22499173.71581954
542,0.0
579,25497241.872347595
2,1, 7,21, 0,17,50.00,60.00,SummerDesignDay
8,17.22833552437677
10,22499173.71581954
542,0.0
579,24997732.77783599
2,1, 7,21, 0,17, 0.00,60.00,SummerDesignDay
268,24.0
308,24.000000000000005
348,24.000000000000015
388,24.0
428,24.0
2,1, 7,21, 0,18, 0.00,10.00,SummerDesignDay
8,17.159453019160176
10,20968617.680729774
542,0.0
579,23460635.42354123
2,1, 7,21, 0,18,10.00,20.00,SummerDesignDay
8,17.090391773337136
10,20968617.680729774
542,0.0
579,22750742.193004535
2,1, 7,21, 0,18,20.00,30.00,SummerDesignDay
8,17.021151077964786
10,20968617.680729774
542,0.0
579,22124185.41234209
2,1, 7,21, 0,18,30.00,40.00,SummerDesignDay
8,16.951729380464653
10,20968617.680729774
542,0.0
579,21450475.708613997
2,1, 7,21, 0,18,40.00,50.00,SummerDesignDay
8,16.882126503829249
10,20968617.680729774
542,0.0
579,20773678.28599255
2,1, 7,21, 0,18,50.00,60.00,SummerDesignDay
8,16.812341807494034
10,20968617.680729774
542,0.0
579,20102860.452465755
2,1, 7,21, 0,18, 0.00,60.00,SummerDesignDay
268,24.00000000000001
308,24.000000000000005
348,24.000000000000005
388,24.0
428,24.0
2,1, 7,21, 0,19, 0.00,10.00,SummerDesignDay
8,16.707321072823203
10,17142227.593005364
542,0.0
579,16052664.937762108
2,1, 7,21, 0,19,10.00,20.00,SummerDesignDay
8,16.601881826644556
10,17142227.593005364
542,0.0
579,14773851.700630419
2,1, 7,21, 0,19,20.00,30.00,SummerDesignDay
8,16.496030555252849
10,17142227.593005364
542,0.0
579,13621228.918029527
2,1, 7,21, 0,19,30.00,40.00,SummerDesignDay
8,16.389760181474104
10,17142227.593005364
542,0.0
579,12688853.837521945
2,1, 7,21, 0,19,40.00,50.00,SummerDesignDay
8,16.283067654262039
10,17142227.593005364
542,0.0
579,11794627.126903166
2,1, 7,21, 0,19,50.00,60.00,SummerDesignDay
8,16.17595057957811
10,17142227.593005364
542,0.0
579,10984706.18773327
2,1, 7,21, 0,19, 0.00,60.00,SummerDesignDay
268,24.000000000000005
308,24.000000000000005
348,24.0
388,23.999516778638115
428,23.98465388677379
2,1, 7,21, 0,20, 0.00,10.00,SummerDesignDay
8,16.097123145563505
10,21963479.10353812
542,0.0
579,13112564.100337772
2,1, 7,21, 0,20,10.00,20.00,SummerDesignDay
8,16.018070242471564
10,21963479.10353812
542,0.0
579,14669568.548944626
2,1, 7,21, 0,20,20.00,30.00,SummerDesignDay
8,15.938779752340516
10,21963479.10353812
542,0.0
579,13409472.742680926
2,1, 7,21, 0,20,30.00,40.00,SummerDesignDay
8,15.85926152575189
10,21963479.10353812
542,0.0
579,13040761.617732063
2,1, 7,21, 0,20,40.00,50.00,SummerDesignDay
8,15.779503718563929
10,21963479.10353812
542,0.0
579,12511799.141003905
2,1, 7,21, 0,20,50.00,60.00,SummerDesignDay
8,15.699515709672767
10,21963479.10353812
542,0.0
579,11957431.66134727
2,1, 7,21, 0,20, 0.00,60.00,SummerDesignDay
268,24.0
308,24.0
348,23.80758612768363
388,23.999986620781745
428,23.99974002397889
2,1, 7,21, 0,21, 0.00,10.00,SummerDesignDay
8,15.63389147320404
10,22014497.638041114
542,0.0
579,11525961.688784214
2,1, 7,21, 0,21,10.00,20.00,SummerDesignDay
8,15.56810827419793
10,22014497.638041114
542,0.0
579,11216719.34455198
2,1, 7,21, 0,21,20.00,30.00,SummerDesignDay
8,15.502170882753524
10,22014497.638041114
542,0.0
579,10704228.45235793
2,1, 7,21, 0,21,30.00,40.00,SummerDesignDay
8,15.436068032613852
10,22014497.638041114
542,0.0
579,10209004.18698987
2,1, 7,21, 0,21,40.00,50.00,SummerDesignDay
8,15.369804371206009
10,22014497.638041114
542,0.0
579,9705784.54587444
2,1, 7,21, 0,21,50.00,60.00,SummerDesignDay
8,15.303384603594449
10,22014497.638041114
542,0.0
579,9197142.231719178
2,1, 7,21, 0,21, 0.00,60.00,SummerDesignDay
268,24.0
308,24.000000000000005
348,23.378851785106879
388,23.99999999999999
428,23.99999999999993
2,1, 7,21, 0,22, 0.00,10.00,SummerDesignDay
8,15.236797685071274
10,17958524.145053239
542,0.0
579,8146472.510541667
2,1, 7,21, 0,22,10.00,20.00,SummerDesignDay
8,15.170047891787942
10,17958524.145053239
542,0.0
579,7818580.181817693
2,1, 7,21, 0,22,20.00,30.00,SummerDesignDay
8,15.103134826860483
10,17958524.145053239
542,0.0
579,7407013.843898369
2,1, 7,21, 0,22,30.00,40.00,SummerDesignDay
8,15.036063385178485
10,17958524.145053239
542,0.0
579,6959884.498243318
2,1, 7,21, 0,22,40.00,50.00,SummerDesignDay
8,14.968821767219835
10,17958524.145053239
542,0.0
579,6502404.7278055199
2,1, 7,21, 0,22,50.00,60.00,SummerDesignDay
8,14.90141525878635
10,17958524.145053239
542,0.0
579,6045042.053644161
2,1, 7,21, 0,22, 0.00,60.00,SummerDesignDay
268,23.561486643755488
308,24.00000000000001
348,22.95962222121079
388,24.000000000000005
428,24.00000000000001
2,1, 7,21, 0,23, 0.00,10.00,SummerDesignDay
8,14.848873673278373
10,13596439.445047409
542,0.0
579,3362233.409241482
2,1, 7,21, 0,23,10.00,20.00,SummerDesignDay
8,14.796237168136719
10,13596439.445047409
542,0.0
579,2979636.083107865
2,1, 7,21, 0,23,20.00,30.00,SummerDesignDay
8,14.743494321455645
10,13596439.445047409
542,0.0
579,2707637.0494024239
2,1, 7,21, 0,23,30.00,40.00,SummerDesignDay
8,14.690649975253665
10,13596439.445047409
542,0.0
579,2430072.448385162
2,1, 7,21, 0,23,40.00,50.00,SummerDesignDay
8,14.637704281233117
10,13596439.445047409
542,0.0
579,2266560.8079445355
2,1, 7,21, 0,23,50.00,60.00,SummerDesignDay
8,14.584656914839757
10,13596439.445047409
542,0.0
579,2127285.7328601034
2,1, 7,21, 0,23, 0.00,60.00,SummerDesignDay
268,22.879956703086504
308,23.668308843978907
348,22.552626811202825
388,23.996722968844087
428,24.000000000000005
2,1, 7,21, 0,24, 0.00,10.00,SummerDesignDay
8,14.531507212058875
10,9081299.141532604
542,0.0
579,625645.5870956103
2,1, 7,21, 0,24,10.00,20.00,SummerDesignDay
8,14.47825496413355
10,9081299.141532604
542,0.0
579,355170.07973071889
2,1, 7,21, 0,24,20.00,30.00,SummerDesignDay
8,14.4249000133173
10,9081299.141532604
542,0.0
579,196400.43828579124
2,1, 7,21, 0,24,30.00,40.00,SummerDesignDay
8,14.371447531304272
10,9081299.141532604
542,0.0
579,36434.73054496912
2,1, 7,21, 0,24,40.00,50.00,SummerDesignDay
8,14.31788619902223
10,9081299.141532604
542,0.0
579,0.0
2,1, 7,21, 0,24,50.00,60.00,SummerDesignDay
8,14.264220970176066
10,9081299.141532604
542,0.0
579,0.0
2,1, 7,21, 0,24, 0.00,60.00,SummerDesignDay
268,22.40478287971653
308,22.825959470288468
348,22.18190156392656
388,23.741504360891669
428,23.99630468133267
3,1, 7,21, 0,SummerDesignDay
269,47.152480441467648,41.73676243450093,20,10,55.29400849239651, 7,20
309,46.948880983770347,41.5759642380673,19,30,55.22854344348445, 7,20
349,47.92712113363035,42.2294260063945,19,20,55.321755925706018, 7,10
389,47.73683687218743,42.736810290898009,17,20,55.6643923996931, 6,60
429,48.257670253608377,43.5787475260331,23,10,56.53485247408431, 6,60
4,1, 7
7,22.2505,16.5,21, 5,60,28.9,21,14,60
1,FORT MCMURRAY AP ANN HTG 99.6% CONDNS DB,  56.65,-111.22,  -7.00, 369.10
2,1, 1,21, 0, 1, 0.00,10.00,WinterDesignDay
8,-36.2
10,5178381.252053703
542,130044597.57714328
579,0.0
2,1, 1,21, 0, 1,10.00,20.00,WinterDesignDay
8,-36.2
10,5178381.252053703
542,130779328.53754778
579,0.0
2,1, 1,21, 0, 1,20.00,30.00,WinterDesignDay
8,-36.2
10,5178381.252053703
542,130995909.62612698
579,0.0
2,1, 1,21, 0, 1,30.00,40.00,WinterDesignDay
8,-36.2
10,5178381.252053703
542,131228289.63160034
579,0.0
2,1, 1,21, 0, 1,40.00,50.00,WinterDesignDay
8,-36.2
10,5178381.252053703
542,131402733.33159402
579,0.0
2,1, 1,21, 0, 1,50.00,60.00,WinterDesignDay
8,-36.2
10,5178381.252053703
542,131548930.47742537
579,0.0
2,1, 1,21, 0, 1, 0.00,60.00,WinterDesignDay
268,18.000000000000005
308,18.00000000000054
348,18.0
388,22.0
428,22.0
2,1, 1,21, 0, 2, 0.00,10.00,WinterDesignDay
8,-36.2
10,2346852.5871376397
542,76193058.42486489
579,0.0
2,1, 1,21, 0, 2,10.00,20.00,WinterDesignDay
8,-36.2
10,2346852.5871376397
542,76992791.59028308
579,0.0
2,1, 1,21, 0, 2,20.00,30.00,WinterDesignDay
8,-36.2
10,2346852.5871376397
542,100566890.62424606
579,0.0
2,1, 1,21, 0, 2,30.00,40.00,WinterDesignDay
8,-36.2
10,2346852.5871376397
542,119514804.56191007
579,0.0
2,1, 1,21, 0, 2,40.00,50.00,WinterDesignDay
8,-36.2
10,2346852.5871376397
542,121427612.05469367
579,0.0
2,1, 1,21, 0, 2,50.00,60.00,WinterDesignDay
8,-36.2
10,2346852.5871376397
542,119737174.47453156
579,0.0
2,1, 1,21, 0, 2, 0.00,60.00,WinterDesignDay
268,18.0
308,18.0
348,18.000000000000005
388,18.64937270458488
428,18.632975053181814
2,1, 1,21, 0, 3, 0.00,10.00,WinterDesignDay
8,-36.2
10,2346852.5871376397
542,121813990.1449921
579,0.0
2,1, 1,21, 0, 3,10.00,20.00,WinterDesignDay
8,-36.2
10,2346852.5871376397
542,122235666.92340243
579,0.0
2,1, 1,21, 0, 3,20.00,30.00,WinterDesignDay
8,-36.2
10,2346852.5871376397
542,122556436.03128925
579,0.0
2,1, 1,21, 0, 3,30.00,40.00,WinterDesignDay
8,-36.2
10,2346852.5871376397
542,122802053.30136737
579,0.0
2,1, 1,21, 0, 3,40.00,50.00,WinterDesignDay
8,-36.2
10,2346852.5871376397
542,123003995.7995939
579,0.0
2,1, 1,21, 0, 3,50.00,60.00,WinterDesignDay
8,-36.2
10,2346852.5871376397
542,123156790.99260244
579,0.0
2,1, 1,21, 0, 3, 0.00,60.00,WinterDesignDay
268,18.00000000000001
308,18.000000000000005
348,18.000000000000005
388,18.00000000000083
428,18.000000000000676
2,1, 1,21, 0, 4, 0.00,10.00,WinterDesignDay
8,-36.2
10,1811157.9748562216
542,123650180.28133726
579,0.0
2,1, 1,21, 0, 4,10.00,20.00,WinterDesignDay
8,-36.2
10,1811157.9748562216
542,123785922.67065245
579,0.0
2,1, 1,21, 0, 4,20.00,30.00,WinterDesignDay
8,-36.2
10,1811157.9748562216
542,123859403.60106927
579,0.0
2,1, 1,21, 0, 4,30.00,40.00,WinterDesignDay
8,-36.2
10,1811157.9748562216
542,123933129.50600028
579,0.0
2,1, 1,21, 0, 4,40.00,50.00,WinterDesignDay
8,-36.2
10,1811157.9748562216
542,123985648.06678973
579,0.0
2,1, 1,21, 0, 4,50.00,60.00,WinterDesignDay
8,-36.2
10,1811157.9748562216
542,124031164.99032644
579,0.0
2,1, 1,21, 0, 4, 0.00,60.00,WinterDesignDay
268,18.000000000000005
308,18.000000000000005
348,18.000000000000005
388,18.000000000000008
428,18.000000000000005
2,1, 1,21, 0, 5, 0.00,10.00,WinterDesignDay
8,-36.2
10,1811157.9748562216
542,124072609.34236977
579,0.0
2,1, 1,21, 0, 5,10.00,20.00,WinterDesignDay
8,-36.2
10,1811157.9748562216
542,124108379.60930127
579,0.0
2,1, 1,21, 0, 5,20.00,30.00,WinterDesignDay
8,-36.2
10,1811157.9748562216
542,124138649.53311506
579,0.0
2,1, 1,21, 0, 5,30.00,40.00,WinterDesignDay
8,-36.2
10,1811157.9748562216
542,124164098.23243459
579,0.0
2,1, 1,21, 0, 5,40.00,50.00,WinterDesignDay
8,-36.2
10,1811157.9748562216
542,124185475.22304544
579,0.0
2,1, 1,21, 0, 5,50.00,60.00,WinterDesignDay
8,-36.2
10,1811157.9748562216
542,124203462.7702032
579,0.0
2,1, 1,21, 0, 5, 0.00,60.00,WinterDesignDay
268,18.000000000000005
308,18.000000000000005
348,18.000000000000005
388,18.000000000000008
428,18.0
2,1, 1,21, 0, 6, 0.00,10.00,WinterDesignDay
8,-36.2
10,1811157.9748562216
542,124218642.9517045
579,0.0
2,1, 1,21, 0, 6,10.00,20.00,WinterDesignDay
8,-36.2
10,1811157.9748562216
542,124231499.84534744
579,0.0
2,1, 1,21, 0, 6,20.00,30.00,WinterDesignDay
8,-36.2
10,1811157.9748562216
542,124239249.68289815
579,0.0
2,1, 1,21, 0, 6,30.00,40.00,WinterDesignDay
8,-36.2
10,1811157.9748562216
542,124245638.2422133
579,0.0
2,1, 1,21, 0, 6,40.00,50.00,WinterDesignDay
8,-36.2
10,1811157.9748562216
542,124252097.90403122
579,0.0
2,1, 1,21, 0, 6,50.00,60.00,WinterDesignDay
8,-36.2
10,1811157.9748562216
542,124258253.74438757
579,0.0
2,1, 1,21, 0, 6, 0.00,60.00,WinterDesignDay
268,18.000000000000005
308,18.000000000000005
348,18.000000000000005
388,18.000000000000005
428,18.000000000000005
2,1, 1,21, 0, 7, 0.00,10.00,WinterDesignDay
8,-36.2
10,3877408.6222274044
542,122965319.37133312
579,0.0
2,1, 1,21, 0, 7,10.00,20.00,WinterDesignDay
8,-36.2
10,3877408.6222274044
542,122764129.44528808
579,0.0
2,1, 1,21, 0, 7,20.00,30.00,WinterDesignDay
8,-36.2
10,3877408.6222274044
542,122768943.25868023
579,0.0
2,1, 1,21, 0, 7,30.00,40.00,WinterDesignDay
8,-36.2
10,3877408.6222274044
542,122744087.71886397
579,0.0
2,1, 1,21, 0, 7,40.00,50.00,WinterDesignDay
8,-36.2
10,3877408.6222274044
542,122719520.14234279
579,0.0
2,1, 1,21, 0, 7,50.00,60.00,WinterDesignDay
8,-36.2
10,3877408.6222274044
542,122698134.88660252
579,0.0
2,1, 1,21, 0, 7, 0.00,60.00,WinterDesignDay
268,18.000000000000005
308,18.0
348,18.000000000000005
388,18.00000000000001
428,18.000000000000005
2,1, 1,21, 0, 8, 0.00,10.00,WinterDesignDay
8,-36.2
10,7244631.899424886
542,256550777.31860829
579,0.0
2,1, 1,21, 0, 8,10.00,20.00,WinterDesignDay
8,-36.2
10,7244631.899424886
542,9425926.500773307
579,0.0
2,1, 1,21, 0, 8,20.00,30.00,WinterDesignDay
8,-36.2
10,7244631.899424886
542,182870019.46477074
579,0.0
2,1, 1,21, 0, 8,30.00,40.00,WinterDesignDay
8,-36.2
10,7244631.899424886
542,135740349.12056596
579,0.0
2,1, 1,21, 0, 8,40.00,50.00,WinterDesignDay
8,-36.2
10,7244631.899424886
542,137512838.48136369
579,0.0
2,1, 1,21, 0, 8,50.00,60.00,WinterDesignDay
8,-36.2
10,7244631.899424886
542,136968537.64298208
579,0.0
2,1, 1,21, 0, 8, 0.00,60.00,WinterDesignDay
268,20.03800487943157
308,20.037376914188866
348,20.037374214251213
388,20.03957921605029
428,20.051359658370715
2,1, 1,21, 0, 9, 0.00,10.00,WinterDesignDay
8,-36.2
10,16963662.72224489
542,258019593.9562125
579,0.0
2,1, 1,21, 0, 9,10.00,20.00,WinterDesignDay
8,-36.2
10,16963662.72224489
542,21090208.494214119
579,0.0
2,1, 1,21, 0, 9,20.00,30.00,WinterDesignDay
8,-36.2
10,16963662.72224489
542,192162996.2481777
579,0.0
2,1, 1,21, 0, 9,30.00,40.00,WinterDesignDay
8,-36.2
10,16963662.72224489
542,143468441.8036907
579,0.0
2,1, 1,21, 0, 9,40.00,50.00,WinterDesignDay
8,-36.2
10,16963662.72224489
542,145289028.13964907
579,0.0
2,1, 1,21, 0, 9,50.00,60.00,WinterDesignDay
8,-36.2
10,16963662.72224489
542,144216214.7963287
579,0.0
2,1, 1,21, 0, 9, 0.00,60.00,WinterDesignDay
268,22.03768103414082
308,22.035897903418076
348,22.036722356264634
388,22.038468743177434
428,22.037373211303345
2,1, 1,21, 0,10, 0.00,10.00,WinterDesignDay
8,-36.2
10,23570562.940382374
542,138288365.97992976
579,0.0
2,1, 1,21, 0,10,10.00,20.00,WinterDesignDay
8,-36.2
10,23570562.940382374
542,138124592.2113576
579,0.0
2,1, 1,21, 0,10,20.00,30.00,WinterDesignDay
8,-36.2
10,23570562.940382374
542,137361701.94198934
579,0.0
2,1, 1,21, 0,10,30.00,40.00,WinterDesignDay
8,-36.2
10,23570562.940382374
542,136885575.48391385
579,0.0
2,1, 1,21, 0,10,40.00,50.00,WinterDesignDay
8,-36.2
10,23570562.940382374
542,136488317.68026746
579,0.0
2,1, 1,21, 0,10,50.00,60.00,WinterDesignDay
8,-36.2
10,23570562.940382374
542,136138398.13329727
579,0.0
2,1, 1,21, 0,10, 0.00,60.00,WinterDesignDay
268,22.00000000000001
308,22.00000000000001
348,22.000000000000005
388,22.0
428,22.0
2,1, 1,21, 0,11, 0.00,10.00,WinterDesignDay
8,-36.2
10,25101118.975472139