Program Version,EnergyPlus, Version 8.9.0-eba93e8e1b, YMD=2019.03.26 18:13
1,5,Environment Title[],Latitude[deg],Longitude[deg],Time Zone[],Elevation[m]
2,8,Day of Simulation[],Month[],Day of Month[],DST Indicator[1=yes 0=no],Hour[],StartMinute[],EndMinute[],DayType
3,5,Cumulative Day of Simulation[],Month[],Day of Month[],DST Indicator[1=yes 0=no],DayType  ! When Daily Report Variables Requested
4,2,Cumulative Days of Simulation[],Month[]  ! When Monthly Report Variables Requested
5,1,Cumulative Days of Simulation[] ! When Run Period Report Variables Requested
6,1,Calendar Year of Simulation[] ! When Annual Report Variables Requested
7,9,Environment,Site Outdoor Air Drybulb Temperature [C] !Monthly [Value,Min,Day,Hour,Minute,Max,Day,Hour,Minute]
8,1,Environment,Site Outdoor Air Wetbulb Temperature [C] !TimeStep
1112,1,SP-ATRIUM (HEIGHT < 6M)-SCH-A-SPACE FUNCTION SYS-6 FLR-1 SCH-A HPLCMT-NORTH ZN,Zone Air Temperature [C] !Hourly
1113,7,SP-ATRIUM (HEIGHT < 6M)-SCH-A-SPACE FUNCTION SYS-6 FLR-1 SCH-A HPLCMT-NORTH ZN,Zone Air Relative Humidity [%] !Daily [Value,Min,Hour,Minute,Max,Hour,Minute]
1152,1,SP-ATRIUM (HEIGHT < 6M)-SCH-B-SPACE FUNCTION SYS-6 FLR-1 SCH-B HPLCMT-SOUTH ZN,Zone Air Temperature [C] !Hourly
1153,7,SP-ATRIUM (HEIGHT < 6M)-SCH-B-SPACE FUNCTION SYS-6 FLR-1 SCH-B HPLCMT-SOUTH ZN,Zone Air Relative Humidity [%] !Daily [Value,Min,Hour,Minute,Max,Hour,Minute]
1192,1,SP-ATRIUM (HEIGHT < 6M)-SCH-C-SPACE FUNCTION SYS-6 FLR-1 SCH-C HPLCMT-CORE ZN,Zone Air Temperature [C] !Hourly
1193,7,SP-ATRIUM (HEIGHT < 6M)-SCH-C-SPACE FUNCTION SYS-6 FLR-1 SCH-C HPLCMT-CORE ZN,Zone Air Relative Humidity [%] !Daily [Value,Min,Hour,Minute,Max,Hour,Minute]
1232,1,SP-ATRIUM (HEIGHT < 6M)-SCH-D-SPACE FUNCTION SYS-6 FLR-2 SCH-D HPLCMT-WEST ZN,Zone Air Temperature [C] !Hourly
1233,7,SP-ATRIUM (HEIGHT < 6M)-SCH-D-SPACE FUNCTION SYS-6 FLR-2 SCH-D HPLCMT-WEST ZN,Zone Air Relative Humidity [%] !Daily [Value,Min,Hour,Minute,Max,Hour,Minute]
1272,1,SP-ATRIUM (HEIGHT < 6M)-SCH-E-SPACE FUNCTION SYS-6 FLR-2 SCH-E HPLCMT-NORTH ZN,Zone Air Temperature [C] !Hourly
1273,7,SP-ATRIUM (HEIGHT < 6M)-SCH-E-SPACE FUNCTION SYS-6 FLR-2 SCH-E HPLCMT-NORTH ZN,Zone Air Relative Humidity [%] !Daily [Value,Min,Hour,Minute,Max,Hour,Minute]
1312,1,SP-ATRIUM (HEIGHT < 6M)-SCH-F-SPACE FUNCTION SYS-6 FLR-1 SCH-F HPLCMT-WEST ZN,Zone Air Temperature [C] !Hourly
1313,7,SP-ATRIUM (HEIGHT < 6M)-SCH-F-SPACE FUNCTION SYS-6 FLR-1 SCH-F HPLCMT-WEST ZN,Zone Air Relative Humidity [%] !Daily [Value,Min,Hour,Minute,Max,Hour,Minute]
1352,1,SP-ATRIUM (HEIGHT < 6M)-SCH-G-SPACE FUNCTION SYS-6 FLR-2 SCH-G HPLCMT-SOUTH ZN,Zone Air Temperature [C] !Hourly
1353,7,SP-ATRIUM (HEIGHT < 6M)-SCH-G-SPACE FUNCTION SYS-6 FLR-2 SCH-G HPLCMT-SOUTH ZN,Zone Air Relative Humidity [%] !Daily [Value,Min,Hour,Minute,Max,Hour,Minute]
1392,1,SP-WHOLEBUILDING-OFFICE SYS-6 FLR-4 SCH-A HPLCMT-EAST ZN,Zone Air Temperature [C] !Hourly
1393,7,SP-WHOLEBUILDING-OFFICE SYS-6 FLR-4 SCH-A HPLCMT-EAST ZN,Zone Air Relative Humidity [%] !Daily [Value,Min,Hour,Minute,Max,Hour,Minute]
1432,1,SP-WHOLEBUILDING-PENITENTIARY SYS-3 FLR-4 SCH-H HPLCMT-NORTH ZN,Zone Air Temperature [C] !Hourly
1433,7,SP-WHOLEBUILDING-PENITENTIARY SYS-3 FLR-4 SCH-H HPLCMT-NORTH ZN,Zone Air Relative Humidity [%] !Daily [Value,Min,Hour,Minute,Max,Hour,Minute]
1472,1,SP-WHOLEBUILDING-PERFORMING ARTS THEATRE SYS-3 FLR-4 SCH-C HPLCMT-SOUTH ZN,Zone Air Temperature [C] !Hourly
1473,7,SP-WHOLEBUILDING-PERFORMING ARTS THEATRE SYS-3 FLR-4 SCH-C HPLCMT-SOUTH ZN,Zone Air Relative Humidity [%] !Daily [Value,Min,Hour,Minute,Max,Hour,Minute]
1512,1,SP-WHOLEBUILDING-POLICE STATION SYS-3 FLR-4 SCH-H HPLCMT-WEST ZN,Zone Air Temperature [C] !Hourly
1513,7,SP-WHOLEBUILDING-POLICE STATION SYS-3 FLR-4 SCH-H HPLCMT-WEST ZN,Zone Air Relative Humidity [%] !Daily [Value,Min,Hour,Minute,Max,Hour,Minute]
1552,1,SP-WHOLEBUILDING-POST OFFICE SYS-6 FLR-3 SCH-A HPLCMT-CORE ZN,Zone Air Temperature [C] !Hourly
1553,7,SP-WHOLEBUILDING-POST OFFICE SYS-6 FLR-3 SCH-A HPLCMT-CORE ZN,Zone Air Relative Humidity [%] !Daily [Value,Min,Hour,Minute,Max,Hour,Minute]
1592,1,SP-WHOLEBUILDING-RETAIL AREA SYS-6 FLR-4 SCH-C HPLCMT-CORE ZN,Zone Air Temperature [C] !Hourly
1593,7,SP-WHOLEBUILDING-RETAIL AREA SYS-6 FLR-4 SCH-C HPLCMT-CORE ZN,Zone Air Relative Humidity [%] !Daily [Value,Min,Hour,Minute,Max,Hour,Minute]
1632,1,SP-WHOLEBUILDING-SCHOOL/UNIVERSITY SYS-3 FLR-3 SCH-D HPLCMT-SOUTH ZN,Zone Air Temperature [C] !Hourly
1633,7,SP-WHOLEBUILDING-SCHOOL/UNIVERSITY SYS-3 FLR-3 SCH-D HPLCMT-SOUTH ZN,Zone Air Relative Humidity [%] !Daily [Value,Min,Hour,Minute,Max,Hour,Minute]
1672,1,SP-WHOLEBUILDING-SPORTS ARENA SYS-6 FLR-3 SCH-B HPLCMT-EAST ZN,Zone Air Temperature [C] !Hourly
1673,7,SP-WHOLEBUILDING-SPORTS ARENA SYS-6 FLR-3 SCH-B HPLCMT-EAST ZN,Zone Air Relative Humidity [%] !Daily [Value,Min,Hour,Minute,Max,Hour,Minute]
1712,1,SP-WHOLEBUILDING-STORAGE GARAGE SYS-4 FLR-3 SCH-K HPLCMT-NORTH ZN,Zone Air Temperature [C] !Hourly
1713,7,SP-WHOLEBUILDING-STORAGE GARAGE SYS-4 FLR-3 SCH-K HPLCMT-NORTH ZN,Zone Air Relative Humidity [%] !Daily [Value,Min,Hour,Minute,Max,Hour,Minute]
1752,1,SP-WHOLEBUILDING-TOWN HALL SYS-3 FLR-3 SCH-D HPLCMT-WEST ZN,Zone Air Temperature [C] !Hourly
1753,7,SP-WHOLEBUILDING-TOWN HALL SYS-3 FLR-3 SCH-D HPLCMT-WEST ZN,Zone Air Relative Humidity [%] !Daily [Value,Min,Hour,Minute,Max,Hour,Minute]
1792,1,SP-WHOLEBUILDING-TRANSPORTATION FACILITY SYS-6 FLR-2 SCH-H HPLCMT-EAST ZN,Zone Air Temperature [C] !Hourly
1793,7,SP-WHOLEBUILDING-TRANSPORTATION FACILITY SYS-6 FLR-2 SCH-H HPLCMT-EAST ZN,Zone Air Relative Humidity [%] !Daily [Value,Min,Hour,Minute,Max,Hour,Minute]
1832,1,SP-WHOLEBUILDING-WAREHOUSE SYS-4 FLR-1 SCH-A HPLCMT-EAST ZN,Zone Air Temperature [C] !Hourly
1833,7,SP-WHOLEBUILDING-WAREHOUSE SYS-4 FLR-1 SCH-A HPLCMT-EAST ZN,Zone Air Relative Humidity [%] !Daily [Value,Min,Hour,Minute,Max,Hour,Minute]
1872,1,SP-WHOLEBUILDING-WORKSHOP SYS-3 FLR-2 SCH-A HPLCMT-CORE ZN,Zone Air Temperature [C] !Hourly
1873,7,SP-WHOLEBUILDING-WORKSHOP SYS-3 FLR-2 SCH-A HPLCMT-CORE ZN,Zone Air Relative Humidity [%] !Daily [Value,Min,Hour,Minute,Max,Hour,Minute]
10,1,Electricity:Facility [J] !TimeStep
878,1,Gas:Facility [J] !TimeStep
End of Data Dictionary
1,FORT MCMURRAY AP ANN CLG .4% CONDNS DB=>MWB,  56.65,-111.22,  -7.00, 369.10
2,1, 7,21, 0, 1, 0.00,10.00,SummerDesignDay
8,14.218136923962174
10,126592436.02230262
878,31846719.547580784
2,1, 7,21, 0, 1,10.00,20.00,SummerDesignDay
8,14.171982153293495
10,126340700.56927279
878,30904630.90081566
2,1, 7,21, 0, 1,20.00,30.00,SummerDesignDay
8,14.125744780286427
10,126156935.0189977
878,30698672.967652099
2,1, 7,21, 0, 1,30.00,40.00,SummerDesignDay
8,14.079436086331978
10,125975315.7073626
878,44218507.774275209
2,1, 7,21, 0, 1,40.00,50.00,SummerDesignDay
8,14.033050387896898
10,125793350.85091421
878,45800855.78102197
2,1, 7,21, 0, 1,50.00,60.00,SummerDesignDay
8,13.986581233564835
10,125609294.03731698
878,45828532.35896513
2,1, 7,21, 0, 1, 0.00,60.00,SummerDesignDay
1112,23.217721099622719
1152,23.999292589984028
1192,23.479432550697415
1232,23.98295663668082
1272,23.330904574660726
1312,23.999139384476704
1352,23.998872930071685
1392,21.02621105883095
1432,23.999139007689519
1472,23.916898738124535
1512,23.99944273587411
1552,23.930034384741885
1592,21.098656801308615
1632,24.791235485676784
1672,23.998396769259004
1712,21.839928303609129
1752,25.907740204613558
1792,23.99865483779705
1832,24.32372709835472
1872,23.75643738547697
2,1, 7,21, 0, 2, 0.00,10.00,SummerDesignDay
8,13.95555882260429
10,117180365.71706316
878,45059866.7895304
2,1, 7,21, 0, 2,10.00,20.00,SummerDesignDay
8,13.924507755336454
10,117046416.21154878
878,45007578.04608311
2,1, 7,21, 0, 2,20.00,30.00,SummerDesignDay
8,13.893416042989206
10,116911148.3197791
878,32268745.075114706
2,1, 7,21, 0, 2,30.00,40.00,SummerDesignDay
8,13.862289589689029
10,116777852.1727586
878,28061415.283684747
2,1, 7,21, 0, 2,40.00,50.00,SummerDesignDay
8,13.831134407608739
10,116648817.19329262
878,29608128.847790954
2,1, 7,21, 0, 2,50.00,60.00,SummerDesignDay
8,13.799938415548118
10,116520837.25176598
878,44892650.201749857
2,1, 7,21, 0, 2, 0.00,60.00,SummerDesignDay
1112,23.166797158113949
1152,24.069085069463143
1192,23.435021952190188
1232,23.897862715756849
1272,23.244760635556088
1312,23.999122304208119
1352,23.998872033588186
1392,20.807470570308707
1432,23.999218060227905
1472,23.535578342178778
1512,23.99946831731197
1552,23.779607681363037
1592,20.893917702378436
1632,24.556467165635067
1672,24.229660026713707
1712,21.432134830029257
1752,25.77783320732847
1792,23.9986486277427
1832,24.203435660182167
1872,23.520430525631295
2,1, 7,21, 0, 3, 0.00,10.00,SummerDesignDay
8,13.776521671948676
10,109941055.95271762
878,41644224.55514156
2,1, 7,21, 0, 3,10.00,20.00,SummerDesignDay
8,13.753085235778466
10,109823624.87455164
878,41384915.85300199
2,1, 7,21, 0, 3,20.00,30.00,SummerDesignDay
8,13.729636002354969
10,109702861.24364762
878,31025358.0093136
2,1, 7,21, 0, 3,30.00,40.00,SummerDesignDay
8,13.706147375533054
10,109582557.99218963
878,12045743.410376417
2,1, 7,21, 0, 3,40.00,50.00,SummerDesignDay
8,13.682651961920304
10,109474929.03845741
878,39630151.53021639
2,1, 7,21, 0, 3,50.00,60.00,SummerDesignDay
8,13.659136670643687
10,109364601.64988038
878,41314101.074865359
2,1, 7,21, 0, 3, 0.00,60.00,SummerDesignDay
1112,23.1213322372635
1152,23.808534086867188
1192,23.388428455495256
1232,23.815092786006756
1272,23.15643684687386
1312,23.99911463102954
1352,23.998847832232813
1392,20.61599679226754
1432,23.999283430517904
1472,23.213972282377005
1512,23.99949047877914
1552,23.627421779897188
1592,20.715464841345847
1632,24.32858899053872
1672,23.70231307813925
1712,21.11809884340234
1752,25.594517914017606
1792,23.998644619478318
1832,24.10725555279088
1872,23.33486999154651
2,1, 7,21, 0, 4, 0.00,10.00,SummerDesignDay
8,13.63560137410855
10,108947448.91539067
878,41402721.6302122
2,1, 7,21, 0, 4,10.00,20.00,SummerDesignDay
8,13.612040802606578
10,108825294.20202694
878,24884563.01440253
2,1, 7,21, 0, 4,20.00,30.00,SummerDesignDay
8,13.58846620506876
10,108706408.20711859
878,16518435.902753113
2,1, 7,21, 0, 4,30.00,40.00,SummerDesignDay
8,13.56487178447336
10,108600123.16263476
878,41267171.89681956
2,1, 7,21, 0, 4,40.00,50.00,SummerDesignDay
8,13.541257354069103
10,108486652.46172017
878,41332650.04828118
2,1, 7,21, 0, 4,50.00,60.00,SummerDesignDay
8,13.517617463812285
10,108366156.26267979
878,41421921.69303721
2,1, 7,21, 0, 4, 0.00,60.00,SummerDesignDay
1112,23.075360059064903
1152,23.62230318290288
1192,23.338102930093798
1232,23.733122756850837
1272,23.06579211133997
1312,23.999129303901076
1352,23.998837892015535
1392,20.430072761179777
1432,23.999343006300497
1472,22.93308587355396
1512,23.999511462287086
1552,23.47309278426567
1592,20.552815652594544
1632,24.11177451022461
1672,23.33133473777499
1712,20.838741364661606
1752,25.41604268007487
1792,23.99864551363359
1832,24.021318059813099
1872,23.169231739610834
2,1, 7,21, 0, 5, 0.00,10.00,SummerDesignDay
8,13.50185415824011
10,108260904.46211863
878,18679418.450576128
2,1, 7,21, 0, 5,10.00,20.00,SummerDesignDay
8,13.486076034032447
10,108615852.41670956
878,22678714.780050078
2,1, 7,21, 0, 5,20.00,30.00,SummerDesignDay
8,13.470289340350983
10,108932224.16823769
878,41276242.81310759
2,1, 7,21, 0, 5,30.00,40.00,SummerDesignDay
8,13.454493322631063
10,109223817.81564725
878,41351406.108369
2,1, 7,21, 0, 5,40.00,50.00,SummerDesignDay
8,13.438688835118548
10,109504990.77842689
878,41409994.49584063
2,1, 7,21, 0, 5,50.00,60.00,SummerDesignDay
8,13.422888173889437
10,109740428.91611967
878,12446112.677036768
2,1, 7,21, 0, 5, 0.00,60.00,SummerDesignDay
1112,23.028734422347367
1152,23.558230883800396
1192,23.286509016137349
1232,23.658883417339344
1272,23.042240224343734
1312,23.99912056257041
1352,23.998824664842699
1392,20.52288469189418
1432,23.99926427901511
1472,22.730387684625414
1512,23.999507529327038
1552,23.323475752729839
1592,20.45469673652721
1632,23.91286913348739
1672,23.251830439241475
1712,20.591985607862705
1752,25.252407209559477
1792,23.99855533408233
1832,23.94172797167816
1872,23.015670183976199
2,1, 7,21, 0, 6, 0.00,10.00,SummerDesignDay
8,13.438688835118548
10,110003797.36322741
878,28899020.86044595
2,1, 7,21, 0, 6,10.00,20.00,SummerDesignDay
8,13.454493322631063
10,110240770.7482417
878,41287898.21258655
2,1, 7,21, 0, 6,20.00,30.00,SummerDesignDay
8,13.470289340350983
10,110446516.52182804
878,41370280.100724827
2,1, 7,21, 0, 6,30.00,40.00,SummerDesignDay
8,13.486076034032447
10,110640286.4196251
878,35324850.208796728
2,1, 7,21, 0, 6,40.00,50.00,SummerDesignDay
8,13.50185415824011
10,110828771.95247127
878,12218801.146038799
2,1, 7,21, 0, 6,50.00,60.00,SummerDesignDay
8,13.517617463812285
10,111039226.34554219
878,35181034.04107318
2,1, 7,21, 0, 6, 0.00,60.00,SummerDesignDay
1112,22.98785189505306
1152,23.50687741620763
1192,23.234446206842283
1232,23.6098233873464
1272,23.09173056257826
1312,23.999113570864379
1352,23.998797197606849
1392,21.580450955913564
1432,23.999085511181904
1472,22.80161411832664
1512,23.999449761676286
1552,23.187557160084585
1592,20.5747854679134
1632,23.790744925043325
1672,23.6016268792456
1712,20.50729658557262
1752,25.14546155780634
1792,23.998399412365005
1832,23.899226097313457
1872,22.93262140669674
2,1, 7,21, 0, 7, 0.00,10.00,SummerDesignDay
8,13.572736920571789
10,111906822.78849381
878,41302284.01429298
2,1, 7,21, 0, 7,10.00,20.00,SummerDesignDay
8,13.627748229152554
10,112251065.39009542
878,41389286.03929543
2,1, 7,21, 0, 7,20.00,30.00,SummerDesignDay
8,13.682651961920304
10,112636653.72885472
878,29208606.8213576
2,1, 7,21, 0, 7,30.00,40.00,SummerDesignDay
8,13.737448093244995
10,113067603.19460099
878,12221154.631213524
2,1, 7,21, 0, 7,40.00,50.00,SummerDesignDay
8,13.792137011831216
10,113550724.04581282
878,41262298.73167476
2,1, 7,21, 0, 7,50.00,60.00,SummerDesignDay
8,13.846719282840333
10,114065492.48525499
878,41319513.943807858
2,1, 7,21, 0, 7, 0.00,60.00,SummerDesignDay
1112,22.955216513512104
1152,23.460333682053486
1192,23.182799296513129
1232,23.57492365530231
1272,22.98039598465724
1312,23.999086477671438
1352,23.99876327367411
1392,22.866496808740484
1432,23.998969584472424
1472,23.21330867468789
1512,23.99934718667266
1552,23.074731272788229
1592,20.918078437402398
1632,23.799917098236678
1672,24.040107461695795
1712,20.719686095953887
1752,25.129942939078508
1792,23.998401191346944
1832,23.942131904287519
1872,22.98805323262683
2,1, 7,21, 0, 8, 0.00,10.00,SummerDesignDay
8,13.978831900527043
10,139150287.3499113
878,42671201.09399253
2,1, 7,21, 0, 8,10.00,20.00,SummerDesignDay
8,14.110321014287419
10,138126245.40779878
878,26021880.15928103
2,1, 7,21, 0, 8,20.00,30.00,SummerDesignDay
8,14.241191509616986
10,139703474.0719375
878,15971455.106943455
2,1, 7,21, 0, 8,30.00,40.00,SummerDesignDay
8,14.371447531304272
10,143065193.5574684
878,41790965.33706102
2,1, 7,21, 0, 8,40.00,50.00,SummerDesignDay
8,14.501093766564925
10,144797323.433332
878,41840314.359634969
2,1, 7,21, 0, 8,50.00,60.00,SummerDesignDay
8,14.630134792273804
10,146976316.00974385
878,41917921.87611024
2,1, 7,21, 0, 8, 0.00,60.00,SummerDesignDay
1112,23.07027239092417
1152,23.42304306187131
1192,23.140046714572639
1232,23.560330531713004
1272,22.926951471900464
1312,23.999350278072034
1352,23.999031498550854
1392,23.920577268486924
1432,23.99873953418287
1472,23.87676879179941
1512,23.999283766942268
1552,23.24549068958513
1592,21.574749615111846
1632,23.952343079003727
1672,24.390408317915499
1712,21.389404410419446
1752,24.01203358975964
1792,23.998750183482785
1832,23.99997854303648
1872,23.538471758773068
2,1, 7,21, 0, 9, 0.00,10.00,SummerDesignDay
8,14.773641492809972
10,239051611.19576714
878,51919500.200394447
2,1, 7,21, 0, 9,10.00,20.00,SummerDesignDay
8,14.91640948124148
10,242485732.54390473
878,45797623.84434787
2,1, 7,21, 0, 9,20.00,30.00,SummerDesignDay
8,15.05843890714102
10,245788648.21364365
878,45777452.07758812
2,1, 7,21, 0, 9,30.00,40.00,SummerDesignDay
8,15.199735893563798
10,248833733.55500973
878,45793422.94771498
2,1, 7,21, 0, 9,40.00,50.00,SummerDesignDay
8,15.340306256439395
10,252017199.92596946
878,45921234.53237668
2,1, 7,21, 0, 9,50.00,60.00,SummerDesignDay
8,15.48015101768072
10,257250986.52873934
878,45818453.84382489
2,1, 7,21, 0, 9, 0.00,60.00,SummerDesignDay
1112,23.865139576767026
1152,23.38763199568395
1192,23.39876286626023
1232,23.73751433835639
1272,23.248738012833756
1312,23.999589935895597
1352,23.999387476610467
1392,23.999805516239417
1432,23.998391729401019
1472,23.999776646990417
1512,23.999193331453797
1552,23.938669690344967
1592,23.391825928590664
1632,23.999830310280175
1672,23.988785295975636
1712,22.559818373344798
1752,23.9998563795115
1792,23.998970482042009
1832,23.999846088947178
1872,23.998966723094488
2,1, 7,21, 0,10, 0.00,10.00,SummerDesignDay
8,15.60467292907716
10,330277505.2660115
878,55737205.22842327
2,1, 7,21, 0,10,10.00,20.00,SummerDesignDay
8,15.72862731650033
10,337431532.75373408
878,56644441.185052689
2,1, 7,21, 0,10,20.00,30.00,SummerDesignDay
8,15.852017409284228
10,341254970.69013127
878,56631567.10832406
2,1, 7,21, 0,10,30.00,40.00,SummerDesignDay
8,15.974848118364367
10,345154782.5834241
878,61767268.79908028
2,1, 7,21, 0,10,40.00,50.00,SummerDesignDay
8,16.097123145563505
10,348213155.0504899
878,62954975.284654717
2,1, 7,21, 0,10,50.00,60.00,SummerDesignDay
8,16.218846351168599
10,351514776.5351807
878,62960973.90743455
2,1, 7,21, 0,10, 0.00,60.00,SummerDesignDay
1112,23.999320389854409
1152,23.637220277339698
1192,23.85441038187564
1232,23.99817431344219
1272,23.9112570481664
1312,23.99946179352338
1352,23.999279306681115
1392,23.999403200862408
1432,23.99726197491943
1472,23.99938148410959
1512,23.998726484499448
1552,23.999550700739979
1592,23.99997494948286
1632,23.998345957044
1672,23.99980562096536
1712,23.888104741617317
1752,23.999344320208448
1792,23.998564525222787
1832,23.999804071364424
1872,23.99911746943526
2,1, 7,21, 0,11, 0.00,10.00,SummerDesignDay
8,16.325793027093189
10,361626086.1662379
878,86569922.55996008
2,1, 7,21, 0,11,10.00,20.00,SummerDesignDay
8,16.432322158488288
10,365196056.7213336
878,77821077.27560695
2,1, 7,21, 0,11,20.00,30.00,SummerDesignDay
8,16.538424180249178
10,367876817.5212794
878,67957895.52979695
2,1, 7,21, 0,11,30.00,40.00,SummerDesignDay
8,16.644108396469087
10,370735840.8072603
878,67929310.3415032
2,1, 7,21, 0,11,40.00,50.00,SummerDesignDay
8,16.749376736593655
10,373135842.7399883
878,67898523.10349192
2,1, 7,21, 0,11,50.00,60.00,SummerDesignDay
8,16.854232613237156
10,375650678.4332052
878,79687348.82040267
2,1, 7,21, 0,11, 0.00,60.00,SummerDesignDay
1112,23.999075118247629
1152,23.954914468291777
1192,23.999772708415354
1232,23.999096796924908
1272,23.999272713513155
1312,23.999625650820666
1352,23.999283889078045
1392,23.99920351128827
1432,23.996936105631489
1472,23.998853032915048
1512,23.998631416538378
1552,23.99928219143747
1592,23.999770170445659
1632,23.99716579080541
1672,23.99919054392443
1712,25.253667533509497
1752,23.999124718235167
1792,23.998660901702338
1832,23.999889569815683
1872,23.999110021867428
2,1, 7,21, 0,12, 0.00,10.00,SummerDesignDay
8,16.92390823520069
10,382790323.2489303
878,83319932.04944192
2,1, 7,21, 0,12,10.00,20.00,SummerDesignDay
8,16.99340178950456
10,384704470.05784359
878,81357979.10820112
2,1, 7,21, 0,12,20.00,30.00,SummerDesignDay
8,17.06272006743463
10,386769659.25331518
878,65975270.08949122
2,1, 7,21, 0,12,30.00,40.00,SummerDesignDay
8,17.131853229172639
10,388864970.29440066
878,65954858.28817473
2,1, 7,21, 0,12,40.00,50.00,SummerDesignDay
8,17.200807172194087
10,391004042.8542036
878,65930332.9402237
2,1, 7,21, 0,12,50.00,60.00,SummerDesignDay
8,17.269582116758607
10,393131777.84429088
878,65905170.79997255
2,1, 7,21, 0,12, 0.00,60.00,SummerDesignDay
1112,23.998959292756003
1152,23.999787712299839
1192,23.999661513066874
1232,23.99887636064352
1272,23.998981578125954
1312,23.99970121239149
1352,23.999347199086786
1392,23.999120182725418
1432,23.996769366898435
1472,23.99846493173366
1512,23.998591689240059
1552,23.999015447537848
1592,23.999698757973918
1632,23.99625457801183
1672,23.998771174525844
1712,26.359089176616299
1752,23.99895787306187
1792,23.99868630245574
1832,23.999975025977066
1872,23.99900746357771
2,1, 7,21, 0,13, 0.00,10.00,SummerDesignDay
8,17.32447360221357
10,395251237.8714376
878,76685363.35343674
2,1, 7,21, 0,13,10.00,20.00,SummerDesignDay
8,17.379251291230806
10,397398463.2542113
878,94231057.78736972
2,1, 7,21, 0,13,20.00,30.00,SummerDesignDay
8,17.433921312061729
10,399088626.54711869
878,77356213.19442474
2,1, 7,21, 0,13,30.00,40.00,SummerDesignDay
8,17.488473222557489
10,400793166.08024039
878,68792166.70609273
2,1, 7,21, 0,13,40.00,50.00,SummerDesignDay
8,17.542913447755134
10,402437960.8100663
878,68760632.4495876
2,1, 7,21, 0,13,50.00,60.00,SummerDesignDay
8,17.59724609886134
10,403953784.05255487
878,68727026.95504558
2,1, 7,21, 0,13, 0.00,60.00,SummerDesignDay
1112,23.999199105258083
1152,23.999354031757595
1192,23.99937904629054
1232,23.998857116525483
1272,23.99881904025111
1312,23.99677836553616
1352,23.999436565439834
1392,23.999209307369087
1432,23.996684000114045
1472,23.99788781007969
1512,23.998573984236548
1552,23.999017441934737
1592,23.999621737510258
1632,23.99603298355663
1672,23.998413247363545
1712,27.103100653052498
1752,23.99889216151487
1792,23.998636856617979
1832,24.000045787073856
1872,23.99911334861342
2,1, 7,21, 0,14, 0.00,10.00,SummerDesignDay
8,17.6311450462694
10,404370360.424735
878,96926718.30349125
2,1, 7,21, 0,14,10.00,20.00,SummerDesignDay
8,17.665000449016245
10,405427922.79130586
878,83547902.49615053
2,1, 7,21, 0,14,20.00,30.00,SummerDesignDay
8,17.698812743128934
10,406331278.6345528
878,69548579.67741089
2,1, 7,21, 0,14,30.00,40.00,SummerDesignDay
8,17.732582050940107
10,407237571.03038248
878,69515973.6909335
2,1, 7,21, 0,14,40.00,50.00,SummerDesignDay
8,17.766307345121004
10,408133327.10098746
878,72198037.69100842
2,1, 7,21, 0,14,50.00,60.00,SummerDesignDay
8,17.79999023167558
10,409007416.77698
878,98199387.7387725
2,1, 7,21, 0,14, 0.00,60.00,SummerDesignDay
1112,23.99919272989256
1152,23.99909723364122
1192,23.999195683025048
1232,23.99883157713789
1272,23.998731625157079
1312,23.99391974382098
1352,23.999512641472035
1392,23.999313404509477
1432,23.996678596096876
1472,23.99751514132684
1512,23.998545200440387
1552,23.99908544062643
1592,23.99955923942062
1632,23.99597180685825
1672,23.998185454169574
1712,27.664831139340199
1752,23.998818790470314
1792,23.99860734377246
1832,24.000053579568584
1872,23.999185011299209
2,1, 7,21, 0,15, 0.00,10.00,SummerDesignDay
8,17.79999023167558
10,409003779.9008409
878,79595411.78784384
2,1, 7,21, 0,15,10.00,20.00,SummerDesignDay
8,17.79999023167558
10,409216390.87041756
878,69544744.96184221
2,1, 7,21, 0,15,20.00,30.00,SummerDesignDay
8,17.79999023167558
10,409468166.03982236
878,69511135.12391529
2,1, 7,21, 0,15,30.00,40.00,SummerDesignDay
8,17.79999023167558
10,409649167.4913518
878,76130851.87847288
2,1, 7,21, 0,15,40.00,50.00,SummerDesignDay
8,17.79999023167558
10,409692734.82853439
878,98228365.5933997
2,1, 7,21, 0,15,50.00,60.00,SummerDesignDay
8,17.79999023167558
10,409577010.1264591
878,75644702.92870641
2,1, 7,21, 0,15, 0.00,60.00,SummerDesignDay
1112,23.998787192142954
1152,23.999192050534434
1192,23.999075222336996
1232,23.99873634231157
1272,23.99904508519332
1312,23.998852907033695
1352,23.999580347366054
1392,23.99924959845623
1432,23.996760370859577
1472,23.997580792282919
1512,23.998396807440327
1552,23.99902628905774
1592,23.999583880791677
1632,23.995981961958568
1672,23.998345786474997
1712,27.96240875844103
1752,23.998602990686825
1792,23.998611677314388
1832,24.000039075884698
1872,23.998982773159694
2,1, 7,21, 0,16, 0.00,10.00,SummerDesignDay
8,17.759562446305357
10,408089894.80009797
878,68164402.27081104
2,1, 7,21, 0,16,10.00,20.00,SummerDesignDay
8,17.71907809634183
10,406852474.23100849
878,67974291.03028503
2,1, 7,21, 0,16,20.00,30.00,SummerDesignDay
8,17.67853788661001
10,405692503.4976628
878,67942831.00806935
2,1, 7,21, 0,16,30.00,40.00,SummerDesignDay
8,17.63791796367351
10,404382034.9377943
878,88896701.40532935
2,1, 7,21, 0,16,40.00,50.00,SummerDesignDay
8,17.59724609886134
10,402941548.0675046
878,90041235.81113719
2,1, 7,21, 0,16,50.00,60.00,SummerDesignDay
8,17.55650676726033
10,401387868.5320377
878,68025794.19842845
2,1, 7,21, 0,16, 0.00,60.00,SummerDesignDay
1112,23.998712448206676
1152,23.999437224822939
1192,23.999015170423364
1232,23.99867720926969
1272,23.99879067815579
1312,23.999734903006286
1352,23.99959715962098
1392,23.99923751299708
1432,23.996959008329794
1472,23.997796245834825
1512,23.99824332061407
1552,23.998985824737927
1592,23.999643899931603
1632,23.99603941243312
1672,23.998782929652497
1712,27.888623868481404
1752,23.998308518586755
1792,23.998586757186059
1832,24.000001295361974
1872,23.9987515947428
2,1, 7,21, 0,17, 0.00,10.00,SummerDesignDay
8,17.50209486331892
10,389482841.56522849
878,61861007.887442
2,1, 7,21, 0,17,10.00,20.00,SummerDesignDay
8,17.447570789624618
10,386985789.32363107
878,61046982.82741795
2,1, 7,21, 0,17,20.00,30.00,SummerDesignDay
8,17.392929544208135
10,384948295.5363399
878,61030869.02176374
2,1, 7,21, 0,17,30.00,40.00,SummerDesignDay
8,17.33818013976614
10,382868468.6199232
878,61015228.84749905
2,1, 7,21, 0,17,40.00,50.00,SummerDesignDay
8,17.283317298559309
10,380778009.56981226
878,60999418.58134149
2,1, 7,21, 0,17,50.00,60.00,SummerDesignDay
8,17.22833552437677
10,378683507.49632588
878,63467202.89396442
2,1, 7,21, 0,17, 0.00,60.00,SummerDesignDay
1112,23.998654331295869
1152,23.999507249122606
1192,23.99887300050594
1232,23.999008271150705
1272,23.998834223635997
1312,23.999678964707117
1352,23.99962184428173
1392,23.99931734833767
1432,23.997296922489367
1472,23.99796864585137
1512,23.998264795781095
1552,23.99900038457635
1592,23.999681219865395
1632,23.997054307854559
1672,23.999129089147926
1712,27.4996928370832
1752,23.998471299472585
1792,23.99862308434125
1832,23.99994524611172
1872,23.99862309292303
2,1, 7,21, 0,18, 0.00,10.00,SummerDesignDay
8,17.159453019160176
10,357468741.0147575
878,56312732.94922185
2,1, 7,21, 0,18,10.00,20.00,SummerDesignDay
8,17.090391773337136
10,354314097.8623945
878,55119476.74232564
2,1, 7,21, 0,18,20.00,30.00,SummerDesignDay
8,17.021151077964786
10,351770407.87964537
878,55124003.64754473
2,1, 7,21, 0,18,30.00,40.00,SummerDesignDay
8,16.951729380464653
10,349313267.0607569
878,55128556.17528032
2,1, 7,21, 0,18,40.00,50.00,SummerDesignDay
8,16.882126503829249
10,346931571.9417081
878,55133113.96688619
2,1, 7,21, 0,18,50.00,60.00,SummerDesignDay
8,16.812341807494034
10,344614257.8113536
878,55137666.15715431
2,1, 7,21, 0,18, 0.00,60.00,SummerDesignDay
1112,23.99885292809978
1152,23.999506762564864
1192,23.998919863645069
1232,23.99940361365005
1272,23.998855554034575
1312,23.999569721703268
1352,23.999554522436573
1392,23.999495675409994
1432,23.997728364783457
1472,23.998389189066079
1512,23.998408664600178
1552,23.999166385514305
1592,23.99974705420273
1632,23.99836327090731
1672,23.999244852902959
1712,26.887690346396004
1752,23.99892913414635
1792,23.99863951673611
1832,23.99988739897148
1872,23.9987334265754
2,1, 7,21, 0,19, 0.00,10.00,SummerDesignDay
8,16.707321072823203
10,300915743.31297269
878,55204122.06492903
2,1, 7,21, 0,19,10.00,20.00,SummerDesignDay
8,16.601881826644556
10,297616699.66175916
878,55215518.34941994
2,1, 7,21, 0,19,20.00,30.00,SummerDesignDay
8,16.496030555252849
10,294953051.6458409
878,55220022.91217806
2,1, 7,21, 0,19,30.00,40.00,SummerDesignDay
8,16.389760181474104
10,292427712.93637809
878,53705565.3676729
2,1, 7,21, 0,19,40.00,50.00,SummerDesignDay
8,16.283067654262039
10,289998847.7549445
878,49249384.52562079
2,1, 7,21, 0,19,50.00,60.00,SummerDesignDay
8,16.17595057957811
10,287631209.34867766
878,49233282.40166136
2,1, 7,21, 0,19, 0.00,60.00,SummerDesignDay
1112,23.999407352990408
1152,23.999355161776369
1192,23.999118694610134
1232,23.99969853769709
1272,23.999420687906576
1312,23.999539796759348
1352,23.999195960222769
1392,23.99974540083114
1432,23.998092497132175
1472,23.998935098091367
1512,23.998614487086326
1552,23.999521469191366
1592,23.999832558997914
1632,23.9989790659577
1672,23.99907713996897
1712,25.864943440013378
1752,23.99921734431479
1792,23.998660840368446
1832,23.999909348212296
1872,23.99933571741835
2,1, 7,21, 0,20, 0.00,10.00,SummerDesignDay
8,16.097123145563505
10,258912687.3760097
878,47677838.265145029
2,1, 7,21, 0,20,10.00,20.00,SummerDesignDay
8,16.018070242471564
10,256588541.72796295
878,47481435.449117589
2,1, 7,21, 0,20,20.00,30.00,SummerDesignDay
8,15.938779752340516
10,254603619.78953687
878,47459545.04085101
2,1, 7,21, 0,20,30.00,40.00,SummerDesignDay
8,15.85926152575189
10,252588359.3467136
878,47437270.91054981
2,1, 7,21, 0,20,40.00,50.00,SummerDesignDay
8,15.779503718563929
10,250527141.29189927
878,47414684.53694342
2,1, 7,21, 0,20,50.00,60.00,SummerDesignDay
8,15.699515709672767
10,248393853.34463258
878,47391782.90001929
2,1, 7,21, 0,20, 0.00,60.00,SummerDesignDay
1112,23.75579719406869
1152,23.999047052830336
1192,23.99940020786835
1232,23.9997548864698
1272,23.853204898702129
1312,23.999461300275525
1352,23.99894301101273
1392,23.616626521491168
1432,23.99825276531729
1472,23.999486250215047
1512,23.998873086824874
1552,23.999723345673048
1592,23.999827862721117
1632,23.99877648685312
1672,23.99859638708067
1712,24.846091481952816
1752,23.999192760597706
1792,23.99866040574426
1832,23.999943162978693
1872,23.999718547772916
2,1, 7,21, 0,21, 0.00,10.00,SummerDesignDay
8,15.63389147320404
10,241520985.10489208
878,55241663.606547128
2,1, 7,21, 0,21,10.00,20.00,SummerDesignDay
8,15.56810827419793
10,239648534.90305848
878,57923897.369501989
2,1, 7,21, 0,21,20.00,30.00,SummerDesignDay
8,15.502170882753524
10,237573262.98131574
878,57927691.143977288
2,1, 7,21, 0,21,30.00,40.00,SummerDesignDay
8,15.436068032613852