Program Version,EnergyPlus, Version 8.9.0-eba93e8e1b, YMD=2019.04.04 17:58
1,5,Environment Title[],Latitude[deg],Longitude[deg],Time Zone[],Elevation[m]
2,8,Day of Simulation[],Month[],Day of Month[],DST Indicator[1=yes 0=no],Hour[],StartMinute[],EndMinute[],DayType
3,5,Cumulative Day of Simulation[],Month[],Day of Month[],DST Indicator[1=yes 0=no],DayType  ! When Daily Report Variables Requested
4,2,Cumulative Days of Simulation[],Month[]  ! When Monthly Report Variables Requested
5,1,Cumulative Days of Simulation[] ! When Run Period Report Variables Requested
6,1,Calendar Year of Simulation[] ! When Annual Report Variables Requested
7,9,Environment,Site Outdoor Air Drybulb Temperature [C] !Monthly [Value,Min,Day,Hour,Minute,Max,Day,Hour,Minute]
8,1,Environment,Site Outdoor Air Wetbulb Temperature [C] !TimeStep
357,1,LOBBY - MOTION PICTURE-SPACE FUNCTION ZN,Zone Air Temperature [C] !Hourly
358,7,LOBBY - MOTION PICTURE-SPACE FUNCTION ZN,Zone Air Relative Humidity [%] !Daily [Value,Min,Hour,Minute,Max,Hour,Minute]
397,1,LOBBY - OTHER-SPACE FUNCTION ZN,Zone Air Temperature [C] !Hourly
398,7,LOBBY - OTHER-SPACE FUNCTION ZN,Zone Air Relative Humidity [%] !Daily [Value,Min,Hour,Minute,Max,Hour,Minute]
437,1,LOBBY - PERFORMANCE ARTS-SPACE FUNCTION ZN,Zone Air Temperature [C] !Hourly
438,7,LOBBY - PERFORMANCE ARTS-SPACE FUNCTION ZN,Zone Air Relative Humidity [%] !Daily [Value,Min,Hour,Minute,Max,Hour,Minute]
477,1,LOUNGE/RECREATION-SPACE FUNCTION ZN,Zone Air Temperature [C] !Hourly
478,7,LOUNGE/RECREATION-SPACE FUNCTION ZN,Zone Air Relative Humidity [%] !Daily [Value,Min,Hour,Minute,Max,Hour,Minute]
517,1,MFG - 7.5 <= BAY H <= 15M-SPACE FUNCTION ZN,Zone Air Temperature [C] !Hourly
518,7,MFG - 7.5 <= BAY H <= 15M-SPACE FUNCTION ZN,Zone Air Relative Humidity [%] !Daily [Value,Min,Hour,Minute,Max,Hour,Minute]
10,1,Electricity:Facility [J] !TimeStep
668,1,DistrictCooling:Facility [J] !TimeStep
631,1,DistrictHeating:Facility [J] !TimeStep
End of Data Dictionary
1,FORT MCMURRAY AP ANN CLG .4% CONDNS DB=>MWB,  56.65,-111.22,  -7.00, 369.10
2,1, 7,21, 0, 1, 0.00,10.00,SummerDesignDay
8,14.218136923962174
10,14933125.719661594
631,0.0
668,123158.51722550929
2,1, 7,21, 0, 1,10.00,20.00,SummerDesignDay
8,14.171982153293495
10,14933125.719661594
631,0.0
668,0.0
2,1, 7,21, 0, 1,20.00,30.00,SummerDesignDay
8,14.125744780286427
10,14933125.719661594
631,0.0
668,0.0
2,1, 7,21, 0, 1,30.00,40.00,SummerDesignDay
8,14.079436086331978
10,14933125.719661594
631,0.0
668,0.0
2,1, 7,21, 0, 1,40.00,50.00,SummerDesignDay
8,14.033050387896898
10,14933125.719661594
631,0.0
668,0.0
2,1, 7,21, 0, 1,50.00,60.00,SummerDesignDay
8,13.986581233564835
10,14933125.719661594
631,0.0
668,0.0
2,1, 7,21, 0, 1, 0.00,60.00,SummerDesignDay
357,19.29937562539088
397,19.243579761498937
437,19.372146571483254
477,23.93886291285942
517,21.133444501395034
2,1, 7,21, 0, 2, 0.00,10.00,SummerDesignDay
8,13.95555882260429
10,10676161.1478887
631,0.0
668,0.0
2,1, 7,21, 0, 2,10.00,20.00,SummerDesignDay
8,13.924507755336454
10,10676161.1478887
631,0.0
668,0.0
2,1, 7,21, 0, 2,20.00,30.00,SummerDesignDay
8,13.893416042989206
10,10676161.1478887
631,0.0
668,0.0
2,1, 7,21, 0, 2,30.00,40.00,SummerDesignDay
8,13.862289589689029
10,10676161.1478887
631,0.0
668,0.0
2,1, 7,21, 0, 2,40.00,50.00,SummerDesignDay
8,13.831134407608739
10,10676161.1478887
631,0.0
668,0.0
2,1, 7,21, 0, 2,50.00,60.00,SummerDesignDay
8,13.799938415548118
10,10676161.1478887
631,0.0
668,0.0
2,1, 7,21, 0, 2, 0.00,60.00,SummerDesignDay
357,18.761502209276946
397,18.70659559464008
437,18.837955653272944
477,23.045040659154183
517,20.673156433517048
2,1, 7,21, 0, 3, 0.00,10.00,SummerDesignDay
8,13.776521671948676
10,6419196.576115807
631,0.0
668,0.0
2,1, 7,21, 0, 3,10.00,20.00,SummerDesignDay
8,13.753085235778466
10,6419196.576115807
631,0.0
668,0.0
2,1, 7,21, 0, 3,20.00,30.00,SummerDesignDay
8,13.729636002354969
10,6419196.576115807
631,0.0
668,0.0
2,1, 7,21, 0, 3,30.00,40.00,SummerDesignDay
8,13.706147375533054
10,6419196.576115807
631,0.0
668,0.0
2,1, 7,21, 0, 3,40.00,50.00,SummerDesignDay
8,13.682651961920304
10,6419196.576115807
631,0.0
668,0.0
2,1, 7,21, 0, 3,50.00,60.00,SummerDesignDay
8,13.659136670643687
10,6419196.576115807
631,0.0
668,0.0
2,1, 7,21, 0, 3, 0.00,60.00,SummerDesignDay
357,18.308976516396198
397,18.27393680590084
437,18.389978024654739
477,21.26144569541177
517,20.252359936962927
2,1, 7,21, 0, 4, 0.00,10.00,SummerDesignDay
8,13.63560137410855
10,6419196.576115807
631,0.0
668,0.0
2,1, 7,21, 0, 4,10.00,20.00,SummerDesignDay
8,13.612040802606578
10,6419196.576115807
631,262233.1184561401
668,0.0
2,1, 7,21, 0, 4,20.00,30.00,SummerDesignDay
8,13.58846620506876
10,6419196.576115807
631,2536879.3750321387
668,0.0
2,1, 7,21, 0, 4,30.00,40.00,SummerDesignDay
8,13.56487178447336
10,6419196.576115807
631,3551570.9632081335
668,0.0
2,1, 7,21, 0, 4,40.00,50.00,SummerDesignDay
8,13.541257354069103
10,6419196.576115807
631,5177172.44183504
668,0.0
2,1, 7,21, 0, 4,50.00,60.00,SummerDesignDay
8,13.517617463812285
10,6419196.576115807
631,6437520.461257556
668,0.0
2,1, 7,21, 0, 4, 0.00,60.00,SummerDesignDay
357,18.016355637542163
397,18.01274571933447
437,18.05267357388755
477,20.056395282001089
517,19.86490918994247
2,1, 7,21, 0, 5, 0.00,10.00,SummerDesignDay
8,13.50185415824011
10,6419196.576115807
631,7389151.587107555
668,0.0
2,1, 7,21, 0, 5,10.00,20.00,SummerDesignDay
8,13.486076034032447
10,6419196.576115807
631,8280611.669404766
668,0.0
2,1, 7,21, 0, 5,20.00,30.00,SummerDesignDay
8,13.470289340350983
10,6419196.576115807
631,9144905.09890261
668,0.0
2,1, 7,21, 0, 5,30.00,40.00,SummerDesignDay
8,13.454493322631063
10,6419196.576115807
631,9990953.937093918
668,0.0
2,1, 7,21, 0, 5,40.00,50.00,SummerDesignDay
8,13.438688835118548
10,6419196.576115807
631,10821413.894852125
668,0.0
2,1, 7,21, 0, 5,50.00,60.00,SummerDesignDay
8,13.422888173889437
10,6419196.576115807
631,11641542.087571059
668,0.0
2,1, 7,21, 0, 5, 0.00,60.00,SummerDesignDay
357,18.00000220212146
397,18.00000164625829
437,18.000023164858779
477,19.56084036922133
517,19.574099798018954
2,1, 7,21, 0, 6, 0.00,10.00,SummerDesignDay
8,13.438688835118548
10,6419196.576115807
631,10951495.80516637
668,0.0
2,1, 7,21, 0, 6,10.00,20.00,SummerDesignDay
8,13.454493322631063
10,6419196.576115807
631,10252347.234759819
668,0.0
2,1, 7,21, 0, 6,20.00,30.00,SummerDesignDay
8,13.470289340350983
10,6419196.576115807
631,9547317.480405836
668,0.0
2,1, 7,21, 0, 6,30.00,40.00,SummerDesignDay
8,13.486076034032447
10,6419196.576115807
631,8834793.98755082
668,0.0
2,1, 7,21, 0, 6,40.00,50.00,SummerDesignDay
8,13.50185415824011
10,6419196.576115807
631,8115360.67372352
668,0.0
2,1, 7,21, 0, 6,50.00,60.00,SummerDesignDay
8,13.517617463812285
10,6419196.576115807
631,7389697.01708145
668,0.0
2,1, 7,21, 0, 6, 0.00,60.00,SummerDesignDay
357,18.000000000300969
397,18.000000000214809
437,18.00000000297568
477,19.346270928020535
517,19.43489166371674
2,1, 7,21, 0, 7, 0.00,10.00,SummerDesignDay
8,13.572736920571789
10,6419196.576115807
631,14123038.543357876
668,0.0
2,1, 7,21, 0, 7,10.00,20.00,SummerDesignDay
8,13.627748229152554
10,6419196.576115807
631,2174798.815786578
668,0.0
2,1, 7,21, 0, 7,20.00,30.00,SummerDesignDay
8,13.682651961920304
10,6419196.576115807
631,178959.71183410573
668,0.0
2,1, 7,21, 0, 7,30.00,40.00,SummerDesignDay
8,13.737448093244995
10,6419196.576115807
631,0.0
668,0.0
2,1, 7,21, 0, 7,40.00,50.00,SummerDesignDay
8,13.792137011831216
10,6419196.576115807
631,315224.6231293243
668,0.0
2,1, 7,21, 0, 7,50.00,60.00,SummerDesignDay
8,13.846719282840333
10,6419196.576115807
631,456748.8540421836
668,0.0
2,1, 7,21, 0, 7, 0.00,60.00,SummerDesignDay
357,18.049678273090849
397,18.06012555948895
437,18.088217348363917
477,19.409145447672086
517,20.123602631616114
2,1, 7,21, 0, 8, 0.00,10.00,SummerDesignDay
8,13.978831900527043
10,11256656.315996228
631,135572340.57130159
668,0.0
2,1, 7,21, 0, 8,10.00,20.00,SummerDesignDay
8,14.110321014287419
10,11256656.315996228
631,24363336.43779066
668,0.0
2,1, 7,21, 0, 8,20.00,30.00,SummerDesignDay
8,14.241191509616986
10,11256656.315996228
631,58103005.17495963
668,0.0
2,1, 7,21, 0, 8,30.00,40.00,SummerDesignDay
8,14.371447531304272
10,11256656.315996228
631,10005095.450823736
668,0.0
2,1, 7,21, 0, 8,40.00,50.00,SummerDesignDay
8,14.501093766564925
10,11256656.315996228
631,4922792.292684665
668,0.0
2,1, 7,21, 0, 8,50.00,60.00,SummerDesignDay
8,14.630134792273804
10,11256656.315996228
631,0.0
668,0.0
2,1, 7,21, 0, 8, 0.00,60.00,SummerDesignDay
357,20.062586884793374
397,20.063244461554779
437,20.06393727064748
477,19.84355975486954
517,22.212931946376718
2,1, 7,21, 0, 9, 0.00,10.00,SummerDesignDay
8,14.773641492809972
10,45568870.75396024
631,98675633.66226354
668,0.0
2,1, 7,21, 0, 9,10.00,20.00,SummerDesignDay
8,14.91640948124148
10,45568870.75396024
631,9372032.263230749
668,0.0
2,1, 7,21, 0, 9,20.00,30.00,SummerDesignDay
8,15.05843890714102
10,45568870.75396024
631,4951626.843894959
668,4970034.295170958
2,1, 7,21, 0, 9,30.00,40.00,SummerDesignDay
8,15.199735893563798
10,45568870.75396024
631,0.0
668,13108231.95207722
2,1, 7,21, 0, 9,40.00,50.00,SummerDesignDay
8,15.340306256439395
10,45568870.75396024
631,0.0
668,16227233.485108994
2,1, 7,21, 0, 9,50.00,60.00,SummerDesignDay
8,15.48015101768072
10,45568870.75396024
631,0.0
668,15667465.526243929
2,1, 7,21, 0, 9, 0.00,60.00,SummerDesignDay
357,22.13203213685331
397,22.230862593164518
437,22.57167354344574
477,20.774312143365326
517,23.65242802735885
2,1, 7,21, 0,10, 0.00,10.00,SummerDesignDay
8,15.60467292907716
10,71335656.31248448
631,8518380.311883664
668,19438023.87692123
2,1, 7,21, 0,10,10.00,20.00,SummerDesignDay
8,15.72862731650033
10,71335656.31248448
631,0.0
668,32783672.865948067
2,1, 7,21, 0,10,20.00,30.00,SummerDesignDay
8,15.852017409284228
10,71335656.31248448
631,0.0
668,36472531.70798061
2,1, 7,21, 0,10,30.00,40.00,SummerDesignDay
8,15.974848118364367
10,71335656.31248448
631,0.0
668,46225662.923103827
2,1, 7,21, 0,10,40.00,50.00,SummerDesignDay
8,16.097123145563505
10,71335656.31248448
631,0.0
668,59729152.19272538
2,1, 7,21, 0,10,50.00,60.00,SummerDesignDay
8,16.218846351168599
10,71335656.31248448
631,0.0
668,76842373.14734534
2,1, 7,21, 0,10, 0.00,60.00,SummerDesignDay
357,23.402231598363927
397,23.63322131544072
437,23.92634936763047
477,23.231421809693786
517,23.999999994823427
2,1, 7,21, 0,11, 0.00,10.00,SummerDesignDay
8,16.325793027093189
10,73464138.59837091
631,0.0
668,101365409.62329196
2,1, 7,21, 0,11,10.00,20.00,SummerDesignDay
8,16.432322158488288
10,73464138.59837091
631,0.0
668,111448336.03634134
2,1, 7,21, 0,11,20.00,30.00,SummerDesignDay
8,16.538424180249178
10,73464138.59837091
631,0.0
668,122671596.48463524
2,1, 7,21, 0,11,30.00,40.00,SummerDesignDay
8,16.644108396469087
10,73464138.59837091
631,0.0
668,132894665.4112306
2,1, 7,21, 0,11,40.00,50.00,SummerDesignDay
8,16.749376736593655
10,73464138.59837091
631,0.0
668,142659127.5985853
2,1, 7,21, 0,11,50.00,60.00,SummerDesignDay
8,16.854232613237156
10,73464138.59837091
631,0.0
668,152224772.22221805
2,1, 7,21, 0,11, 0.00,60.00,SummerDesignDay
357,23.99991672186646
397,23.99999274569835
437,23.999999979933084
477,23.99986371056856
517,24.000000000000019
2,1, 7,21, 0,12, 0.00,10.00,SummerDesignDay
8,16.92390823520069
10,75592620.88425736
631,0.0
668,162156608.34796483
2,1, 7,21, 0,12,10.00,20.00,SummerDesignDay
8,16.99340178950456
10,75592620.88425736
631,0.0
668,168823620.3936037
2,1, 7,21, 0,12,20.00,30.00,SummerDesignDay
8,17.06272006743463
10,75592620.88425736
631,0.0
668,174618275.85507629
2,1, 7,21, 0,12,30.00,40.00,SummerDesignDay
8,17.131853229172639
10,75592620.88425736
631,0.0
668,180358796.83226518
2,1, 7,21, 0,12,40.00,50.00,SummerDesignDay
8,17.200807172194087
10,75592620.88425736
631,0.0
668,186052768.63998477
2,1, 7,21, 0,12,50.00,60.00,SummerDesignDay
8,17.269582116758607
10,75592620.88425736
631,0.0
668,191694635.0032032
2,1, 7,21, 0,12, 0.00,60.00,SummerDesignDay
357,23.999999986204498
397,23.999999998982579
437,23.999999999997685
477,23.999999999989709
517,24.00000000000001
2,1, 7,21, 0,13, 0.00,10.00,SummerDesignDay
8,17.32447360221357
10,75592620.88425736
631,0.0
668,203863381.26317967
2,1, 7,21, 0,13,10.00,20.00,SummerDesignDay
8,17.379251291230806
10,75592620.88425736
631,0.0
668,208737657.81948699
2,1, 7,21, 0,13,20.00,30.00,SummerDesignDay
8,17.433921312061729
10,75592620.88425736
631,0.0
668,213208884.78537113
2,1, 7,21, 0,13,30.00,40.00,SummerDesignDay
8,17.488473222557489
10,75592620.88425736
631,0.0
668,217571691.7228345
2,1, 7,21, 0,13,40.00,50.00,SummerDesignDay
8,17.542913447755134
10,75592620.88425736
631,0.0
668,221659210.62937034
2,1, 7,21, 0,13,50.00,60.00,SummerDesignDay
8,17.59724609886134
10,75592620.88425736
631,0.0
668,225734598.39499829
2,1, 7,21, 0,13, 0.00,60.00,SummerDesignDay
357,23.999999999997799
397,23.999999999999877
437,23.999999999999987
477,24.000000000000019
517,24.000000000000019
2,1, 7,21, 0,14, 0.00,10.00,SummerDesignDay
8,17.6311450462694
10,75592620.88425736
631,0.0
668,227659835.85213439
2,1, 7,21, 0,14,10.00,20.00,SummerDesignDay
8,17.665000449016245
10,75592620.88425736
631,0.0
668,230047964.69797833
2,1, 7,21, 0,14,20.00,30.00,SummerDesignDay
8,17.698812743128934
10,75592620.88425736
631,0.0
668,232251464.18846599
2,1, 7,21, 0,14,30.00,40.00,SummerDesignDay
8,17.732582050940107
10,75592620.88425736
631,0.0
668,234453636.81528429
2,1, 7,21, 0,14,40.00,50.00,SummerDesignDay
8,17.766307345121004
10,75592620.88425736
631,0.0
668,236652758.27430038
2,1, 7,21, 0,14,50.00,60.00,SummerDesignDay
8,17.79999023167558
10,75592620.88425736
631,0.0
668,238843872.5240604
2,1, 7,21, 0,14, 0.00,60.00,SummerDesignDay
357,24.000000000000005
397,24.000000000000019
437,24.00000000000004
477,24.000000000000026
517,23.999999999999984
2,1, 7,21, 0,15, 0.00,10.00,SummerDesignDay
8,17.79999023167558
10,75592620.88425736
631,0.0
668,237806379.25570844
2,1, 7,21, 0,15,10.00,20.00,SummerDesignDay
8,17.79999023167558
10,75592620.88425736
631,0.0
668,237774331.10673315
2,1, 7,21, 0,15,20.00,30.00,SummerDesignDay
8,17.79999023167558
10,75592620.88425736
631,0.0
668,237787172.60491968
2,1, 7,21, 0,15,30.00,40.00,SummerDesignDay
8,17.79999023167558
10,75592620.88425736
631,0.0
668,237796842.87390954
2,1, 7,21, 0,15,40.00,50.00,SummerDesignDay
8,17.79999023167558
10,75592620.88425736
631,0.0
668,237804922.72012405
2,1, 7,21, 0,15,50.00,60.00,SummerDesignDay
8,17.79999023167558
10,75592620.88425736
631,0.0
668,237811749.1255516
2,1, 7,21, 0,15, 0.00,60.00,SummerDesignDay
357,24.000000000000005
397,24.000000000000015
437,23.99999999999999
477,24.000000000000019
517,24.000000000000015
2,1, 7,21, 0,16, 0.00,10.00,SummerDesignDay
8,17.759562446305357
10,75592620.88425736
631,0.0
668,233155699.9050499
2,1, 7,21, 0,16,10.00,20.00,SummerDesignDay
8,17.71907809634183
10,75592620.88425736
631,0.0
668,230449557.91799814
2,1, 7,21, 0,16,20.00,30.00,SummerDesignDay
8,17.67853788661001
10,75592620.88425736
631,0.0
668,227837631.71156893
2,1, 7,21, 0,16,30.00,40.00,SummerDesignDay
8,17.63791796367351
10,75592620.88425736
631,0.0
668,225088376.57003484
2,1, 7,21, 0,16,40.00,50.00,SummerDesignDay
8,17.59724609886134
10,75592620.88425736
631,0.0
668,222077501.3346329
2,1, 7,21, 0,16,50.00,60.00,SummerDesignDay
8,17.55650676726033
10,75592620.88425736
631,0.0
668,219068259.8717434
2,1, 7,21, 0,16, 0.00,60.00,SummerDesignDay
357,23.999999999999998
397,23.999999999999998
437,24.000000000000015
477,24.000000000000005
517,23.99999999999997
2,1, 7,21, 0,17, 0.00,10.00,SummerDesignDay
8,17.50209486331892
10,75592620.88425736
631,0.0
668,217683551.80782593
2,1, 7,21, 0,17,10.00,20.00,SummerDesignDay
8,17.447570789624618
10,75592620.88425736
631,0.0
668,213828465.19882883
2,1, 7,21, 0,17,20.00,30.00,SummerDesignDay
8,17.392929544208135
10,75592620.88425736
631,0.0
668,209662271.22038267
2,1, 7,21, 0,17,30.00,40.00,SummerDesignDay
8,17.33818013976614
10,75592620.88425736
631,0.0
668,205296607.2755394
2,1, 7,21, 0,17,40.00,50.00,SummerDesignDay
8,17.283317298559309
10,75592620.88425736
631,0.0
668,200929548.64044217
2,1, 7,21, 0,17,50.00,60.00,SummerDesignDay
8,17.22833552437677
10,75592620.88425736
631,0.0
668,196558903.92112229
2,1, 7,21, 0,17, 0.00,60.00,SummerDesignDay
357,24.000000000000015
397,24.000000000000015
437,24.0
477,24.0
517,24.00000000000004
2,1, 7,21, 0,18, 0.00,10.00,SummerDesignDay
8,17.159453019160176
10,74107633.24311021
631,0.0
668,187159525.34503845
2,1, 7,21, 0,18,10.00,20.00,SummerDesignDay
8,17.090391773337136
10,74107633.24311021
631,0.0
668,181408679.7566834
2,1, 7,21, 0,18,20.00,30.00,SummerDesignDay
8,17.021151077964786
10,74107633.24311021
631,0.0
668,175925248.13784964
2,1, 7,21, 0,18,30.00,40.00,SummerDesignDay
8,16.951729380464653
10,74107633.24311021
631,0.0
668,170396227.86298952
2,1, 7,21, 0,18,40.00,50.00,SummerDesignDay
8,16.882126503829249
10,74107633.24311021
631,0.0
668,164843685.24363933
2,1, 7,21, 0,18,50.00,60.00,SummerDesignDay
8,16.812341807494034
10,74107633.24311021
631,0.0
668,158843752.22023107
2,1, 7,21, 0,18, 0.00,60.00,SummerDesignDay
357,24.0
397,24.0
437,24.000000000000005
477,24.0
517,24.000000000000033
2,1, 7,21, 0,19, 0.00,10.00,SummerDesignDay
8,16.707321072823203
10,65152707.77161863
631,0.0
668,137738295.97126047
2,1, 7,21, 0,19,10.00,20.00,SummerDesignDay
8,16.601881826644556
10,65152707.77161863
631,0.0
668,127987181.68568316
2,1, 7,21, 0,19,20.00,30.00,SummerDesignDay
8,16.496030555252849
10,65152707.77161863
631,0.0
668,118870604.61126158
2,1, 7,21, 0,19,30.00,40.00,SummerDesignDay
8,16.389760181474104
10,65152707.77161863
631,0.0
668,109720288.33552961
2,1, 7,21, 0,19,40.00,50.00,SummerDesignDay
8,16.283067654262039
10,65152707.77161863
631,0.0
668,100617517.56867208
2,1, 7,21, 0,19,50.00,60.00,SummerDesignDay
8,16.17595057957811
10,65152707.77161863
631,0.0
668,91507410.76603684
2,1, 7,21, 0,19, 0.00,60.00,SummerDesignDay
357,24.000000000000005
397,24.00000000000001
437,24.00000000000003
477,24.0
517,24.000000000000005
2,1, 7,21, 0,20, 0.00,10.00,SummerDesignDay
8,16.097123145563505
10,45757869.18385552
631,0.0
668,60031029.96692647
2,1, 7,21, 0,20,10.00,20.00,SummerDesignDay
8,16.018070242471564
10,45757869.18385552
631,0.0
668,51118308.28635381
2,1, 7,21, 0,20,20.00,30.00,SummerDesignDay
8,15.938779752340516
10,45757869.18385552
631,0.0
668,43939710.44668735
2,1, 7,21, 0,20,30.00,40.00,SummerDesignDay
8,15.85926152575189
10,45757869.18385552
631,0.0
668,36665560.35623997
2,1, 7,21, 0,20,40.00,50.00,SummerDesignDay
8,15.779503718563929
10,45757869.18385552
631,0.0
668,31430646.542561383
2,1, 7,21, 0,20,50.00,60.00,SummerDesignDay
8,15.699515709672767
10,45757869.18385552
631,0.0
668,27383843.393131716
2,1, 7,21, 0,20, 0.00,60.00,SummerDesignDay
357,23.968414092454979
397,23.99712166186681
437,24.000000000000015
477,24.000000000000019
517,23.999999999999998
2,1, 7,21, 0,21, 0.00,10.00,SummerDesignDay
8,15.63389147320404
10,41032908.50670761
631,0.0
668,22601805.479586133
2,1, 7,21, 0,21,10.00,20.00,SummerDesignDay
8,15.56810827419793
10,41032908.50670761
631,0.0
668,20068104.5906808
2,1, 7,21, 0,21,20.00,30.00,SummerDesignDay
8,15.502170882753524
10,41032908.50670761
631,0.0
668,17786681.618506098
2,1, 7,21, 0,21,30.00,40.00,SummerDesignDay
8,15.436068032613852
10,41032908.50670761
631,0.0
668,15961511.75445663
2,1, 7,21, 0,21,40.00,50.00,SummerDesignDay
8,15.369804371206009
10,41032908.50670761
631,0.0
668,15199495.440080727
2,1, 7,21, 0,21,50.00,60.00,SummerDesignDay
8,15.303384603594449
10,41032908.50670761
631,0.0
668,14438683.47216645
2,1, 7,21, 0,21, 0.00,60.00,SummerDesignDay
357,23.305850267847175
397,23.511994520752638
437,23.956303889564638
477,24.000000000000026
517,23.999999999999998
2,1, 7,21, 0,22, 0.00,10.00,SummerDesignDay
8,15.236797685071274
10,15675619.540235173
631,0.0
668,12613357.653070536
2,1, 7,21, 0,22,10.00,20.00,SummerDesignDay
8,15.170047891787942
10,15675619.540235173
631,0.0
668,12282238.450854283
2,1, 7,21, 0,22,20.00,30.00,SummerDesignDay
8,15.103134826860483
10,15675619.540235173
631,0.0
668,11926379.757715356
2,1, 7,21, 0,22,30.00,40.00,SummerDesignDay
8,15.036063385178485
10,15675619.540235173
631,0.0
668,11569744.494133693
2,1, 7,21, 0,22,40.00,50.00,SummerDesignDay
8,14.968821767219835
10,15675619.540235173
631,0.0
668,11219665.596532926
2,1, 7,21, 0,22,50.00,60.00,SummerDesignDay
8,14.90141525878635
10,15675619.540235173
631,0.0
668,10826093.94442422
2,1, 7,21, 0,22, 0.00,60.00,SummerDesignDay
357,22.00180858012837
397,22.051957387823327
437,22.35421805871832
477,24.000000000000005
517,23.543904882193414
2,1, 7,21, 0,23, 0.00,10.00,SummerDesignDay
8,14.848873673278373
10,15675619.540235173
631,0.0
668,7490842.842466885
2,1, 7,21, 0,23,10.00,20.00,SummerDesignDay
8,14.796237168136719
10,15675619.540235173
631,0.0
668,6983614.539639139
2,1, 7,21, 0,23,20.00,30.00,SummerDesignDay
8,14.743494321455645
10,15675619.540235173
631,0.0
668,6592504.329175608
2,1, 7,21, 0,23,30.00,40.00,SummerDesignDay
8,14.690649975253665
10,15675619.540235173
631,0.0
668,6204147.9216781179
2,1, 7,21, 0,23,40.00,50.00,SummerDesignDay
8,14.637704281233117
10,15675619.540235173
631,0.0
668,5830283.883664089
2,1, 7,21, 0,23,50.00,60.00,SummerDesignDay
8,14.584656914839757
10,15675619.540235173
631,0.0
668,5466815.170773855
2,1, 7,21, 0,23, 0.00,60.00,SummerDesignDay
357,20.812130053645114
397,20.772022730349666
437,20.895471235043769
477,24.0
517,22.638223966309299
2,1, 7,21, 0,24, 0.00,10.00,SummerDesignDay
8,14.531507212058875
10,14933125.719661594
631,0.0
668,3173845.0643353236
2,1, 7,21, 0,24,10.00,20.00,SummerDesignDay
8,14.47825496413355
10,14933125.719661594
631,0.0
668,2757163.9119990735
2,1, 7,21, 0,24,20.00,30.00,SummerDesignDay
8,14.4249000133173
10,14933125.719661594
631,0.0
668,2418742.615813135
2,1, 7,21, 0,24,30.00,40.00,SummerDesignDay
8,14.371447531304272
10,14933125.719661594
631,0.0
668,2069676.0812456844
2,1, 7,21, 0,24,40.00,50.00,SummerDesignDay
8,14.31788619902223
10,14933125.719661594
631,0.0
668,1724519.5984037384
2,1, 7,21, 0,24,50.00,60.00,SummerDesignDay
8,14.264220970176066
10,14933125.719661594
631,0.0
668,1382852.6810850166
2,1, 7,21, 0,24, 0.00,60.00,SummerDesignDay
357,20.01261353966246
397,19.961844916255399
437,20.081460694564759
477,24.0
517,21.82106049453638
3,1, 7,21, 0,SummerDesignDay
358,51.801653009360148,41.47132576484556,16,30,65.31140094276985, 6,50
398,51.61673912522121,41.47127833000357,16,60,65.31140094276985, 6,50
438,51.00739483602951,40.99246854089464,12,60,65.31140094276963, 6,50
478,49.97143313108916,42.652514804392428,18,10,60.22162301554791, 6,50
518,47.783704970195888,40.910680566098999,19,60,59.73418077560514, 6,40
4,1, 7
7,22.2505,16.5,21, 5,60,28.9,21,14,60
1,FORT MCMURRAY AP ANN HTG 99.6% CONDNS DB,  56.65,-111.22,  -7.00, 369.10
2,1, 1,21, 0, 1, 0.00,10.00,WinterDesignDay
8,-36.2
10,14933125.719661594
631,1111196618.2221044
668,0.0
2,1, 1,21, 0, 1,10.00,20.00,WinterDesignDay
8,-36.2
10,14933125.719661594
631,1111297390.4100426
668,0.0
2,1, 1,21, 0, 1,20.00,30.00,WinterDesignDay
8,-36.2
10,14933125.719661594
631,1111348002.8770068
668,0.0
2,1, 1,21, 0, 1,30.00,40.00,WinterDesignDay
8,-36.2
10,14933125.719661594
631,1111402259.2142764
668,0.0
2,1, 1,21, 0, 1,40.00,50.00,WinterDesignDay
8,-36.2
10,14933125.719661594
631,1111451550.5157397
668,0.0
2,1, 1,21, 0, 1,50.00,60.00,WinterDesignDay
8,-36.2
10,14933125.719661594
631,1111494003.9861134
668,0.0
2,1, 1,21, 0, 1, 0.00,60.00,WinterDesignDay
357,18.000000000000005
397,18.000000000000005
437,18.000000000000008
477,22.00000000000001
517,18.00000000000001
2,1, 1,21, 0, 2, 0.00,10.00,WinterDesignDay
8,-36.2
10,10676161.1478887
631,1115816580.073997
668,0.0
2,1, 1,21, 0, 2,10.00,20.00,WinterDesignDay
8,-36.2
10,10676161.1478887
631,1115898508.885889
668,0.0
2,1, 1,21, 0, 2,20.00,30.00,WinterDesignDay
8,-36.2
10,10676161.1478887
631,1116067407.1847666
668,0.0
2,1, 1,21, 0, 2,30.00,40.00,WinterDesignDay
8,-36.2
10,10676161.1478887
631,1116191630.213282
668,0.0
2,1, 1,21, 0, 2,40.00,50.00,WinterDesignDay
8,-36.2
10,10676161.1478887
631,1116285579.344039
668,0.0
2,1, 1,21, 0, 2,50.00,60.00,WinterDesignDay
8,-36.2
10,10676161.1478887
631,1116363088.3973444
668,0.0
2,1, 1,21, 0, 2, 0.00,60.00,WinterDesignDay
357,18.000000000000005
397,18.000000000000005
437,18.0
477,22.0
517,18.00000000000001
2,1, 1,21, 0, 3, 0.00,10.00,WinterDesignDay
8,-36.2
10,6419196.576115807
631,1077016512.1877335
668,0.0
2,1, 1,21, 0, 3,10.00,20.00,WinterDesignDay
8,-36.2
10,6419196.576115807
631,1098172734.0313638
668,0.0
2,1, 1,21, 0, 3,20.00,30.00,WinterDesignDay
8,-36.2
10,6419196.576115807
631,1109046085.0356594
668,0.0
2,1, 1,21, 0, 3,30.00,40.00,WinterDesignDay
8,-36.2
10,6419196.576115807
631,1109031960.2234114
668,0.0
2,1, 1,21, 0, 3,40.00,50.00,WinterDesignDay
8,-36.2
10,6419196.576115807
631,1110907311.6727188
668,0.0
2,1, 1,21, 0, 3,50.00,60.00,WinterDesignDay
8,-36.2
10,6419196.576115807
631,1111488027.5372918
668,0.0
2,1, 1,21, 0, 3, 0.00,60.00,WinterDesignDay
357,18.0
397,18.0
437,18.0
477,18.175163386372284
517,18.000000000000008
2,1, 1,21, 0, 4, 0.00,10.00,WinterDesignDay
8,-36.2
10,6419196.576115807
631,1111764314.1822677
668,0.0
2,1, 1,21, 0, 4,10.00,20.00,WinterDesignDay
8,-36.2
10,6419196.576115807
631,1111974438.6292856
668,0.0
2,1, 1,21, 0, 4,20.00,30.00,WinterDesignDay
8,-36.2
10,6419196.576115807
631,1112135366.1381043
668,0.0
2,1, 1,21, 0, 4,30.00,40.00,WinterDesignDay
8,-36.2
10,6419196.576115807
631,1112267609.1320046
668,0.0
2,1, 1,21, 0, 4,40.00,50.00,WinterDesignDay
8,-36.2
10,6419196.576115807
631,1112367663.8921948
668,0.0
2,1, 1,21, 0, 4,50.00,60.00,WinterDesignDay
8,-36.2
10,6419196.576115807
631,1112450529.6195703
668,0.0
2,1, 1,21, 0, 4, 0.00,60.00,WinterDesignDay
357,18.0
397,18.0
437,18.0
477,18.00000000000035
517,18.00000000000001
2,1, 1,21, 0, 5, 0.00,10.00,WinterDesignDay
8,-36.2
10,6419196.576115807
631,1112512433.0232294
668,0.0
2,1, 1,21, 0, 5,10.00,20.00,WinterDesignDay
8,-36.2
10,6419196.576115807
631,1112564843.918926
668,0.0
2,1, 1,21, 0, 5,20.00,30.00,WinterDesignDay
8,-36.2
10,6419196.576115807
631,1112602386.2319365
668,0.0
2,1, 1,21, 0, 5,30.00,40.00,WinterDesignDay
8,-36.2
10,6419196.576115807
631,1112634934.474917
668,0.0
2,1, 1,21, 0, 5,40.00,50.00,WinterDesignDay
8,-36.2
10,6419196.576115807
631,1112664514.0551618
668,0.0
2,1, 1,21, 0, 5,50.00,60.00,WinterDesignDay
8,-36.2
10,6419196.576115807
631,1112689978.2310816
668,0.0
2,1, 1,21, 0, 5, 0.00,60.00,WinterDesignDay
357,18.000000000000005
397,18.0
437,18.000000000000005
477,18.000000000000005
517,18.000000000000015
2,1, 1,21, 0, 6, 0.00,10.00,WinterDesignDay
8,-36.2
10,6419196.576115807
631,1112711476.6952224
668,0.0
2,1, 1,21, 0, 6,10.00,20.00,WinterDesignDay
8,-36.2
10,6419196.576115807
631,1112729516.6246985
668,0.0
2,1, 1,21, 0, 6,20.00,30.00,WinterDesignDay
8,-36.2
10,6419196.576115807
631,1112744647.9045826
668,0.0
2,1, 1,21, 0, 6,30.00,40.00,WinterDesignDay
8,-36.2
10,6419196.576115807
631,1112757366.4345778
668,0.0
2,1, 1,21, 0, 6,40.00,50.00,WinterDesignDay
8,-36.2
10,6419196.576115807
631,1112764982.4628378
668,0.0
2,1, 1,21, 0, 6,50.00,60.00,WinterDesignDay
8,-36.2
10,6419196.576115807
631,1112771236.7163642
668,0.0
2,1, 1,21, 0, 6, 0.00,60.00,WinterDesignDay
357,18.000000000000005
397,18.000000000000005
437,18.0
477,18.000000000000005
517,18.000000000000008
2,1, 1,21, 0, 7, 0.00,10.00,WinterDesignDay
8,-36.2
10,6419196.576115807
631,1140159056.2680026
668,0.0
2,1, 1,21, 0, 7,10.00,20.00,WinterDesignDay
8,-36.2
10,6419196.576115807
631,1099623203.986591
668,0.0
2,1, 1,21, 0, 7,20.00,30.00,WinterDesignDay
8,-36.2
10,6419196.576115807
631,1124402231.19844
668,0.0
2,1, 1,21, 0, 7,30.00,40.00,WinterDesignDay
8,-36.2
10,6419196.576115807
631,1118579645.0220268
668,0.0
2,1, 1,21, 0, 7,40.00,50.00,WinterDesignDay
8,-36.2
10,6419196.576115807
631,1118462259.133026
668,0.0
2,1, 1,21, 0, 7,50.00,60.00,WinterDesignDay
8,-36.2
10,6419196.576115807
631,1118356874.1614373
668,0.0
2,1, 1,21, 0, 7, 0.00,60.00,WinterDesignDay
357,18.0
397,18.0
437,18.0
477,18.0
517,20.001513496147628
2,1, 1,21, 0, 8, 0.00,10.00,WinterDesignDay
8,-36.2
10,11256656.315996228
631,1248702240.1087528
668,0.0
2,1, 1,21, 0, 8,10.00,20.00,WinterDesignDay
8,-36.2
10,11256656.315996228
631,1084651235.0545786
668,0.0
2,1, 1,21, 0, 8,20.00,30.00,WinterDesignDay
8,-36.2
10,11256656.315996228
631,1187772673.9894398
668,0.0
2,1, 1,21, 0, 8,30.00,40.00,WinterDesignDay
8,-36.2
10,11256656.315996228
631,1163800173.6466315
668,0.0
2,1, 1,21, 0, 8,40.00,50.00,WinterDesignDay
8,-36.2
10,11256656.315996228
631,1162874355.3856889
668,0.0
2,1, 1,21, 0, 8,50.00,60.00,WinterDesignDay
8,-36.2
10,11256656.315996228
631,1162294189.8026572
668,0.0
2,1, 1,21, 0, 8, 0.00,60.00,WinterDesignDay
357,19.9970818628118
397,19.997084966953819
437,19.997089512408296
477,18.000000000000005
517,22.001244489079814
2,1, 1,21, 0, 9, 0.00,10.00,WinterDesignDay
8,-36.2
10,45568870.75396024
631,1269315219.9532269
668,0.0
2,1, 1,21, 0, 9,10.00,20.00,WinterDesignDay
8,-36.2
10,45568870.75396024
631,1102246944.211592
668,0.0
2,1, 1,21, 0, 9,20.00,30.00,WinterDesignDay
8,-36.2
10,45568870.75396024
631,1205286808.506556
668,0.0
2,1, 1,21, 0, 9,30.00,40.00,WinterDesignDay
8,-36.2
10,45568870.75396024
631,1180212336.8254429
668,0.0
2,1, 1,21, 0, 9,40.00,50.00,WinterDesignDay
8,-36.2
10,45568870.75396024
631,1178763509.0293732
668,0.0
2,1, 1,21, 0, 9,50.00,60.00,WinterDesignDay
8,-36.2
10,45568870.75396024
631,1177656209.3567217
668,0.0
2,1, 1,21, 0, 9, 0.00,60.00,WinterDesignDay
357,21.996908243607647
397,21.996928168159216
437,21.996974845055605
477,20.006576430012797
517,22.000000000000019
2,1, 1,21, 0,10, 0.00,10.00,WinterDesignDay
8,-36.2
10,71335656.31248448
631,1181343173.9993668
668,0.0
2,1, 1,21, 0,10,10.00,20.00,WinterDesignDay
8,-36.2
10,71335656.31248448
631,1138407314.2268999
668,0.0
2,1, 1,21, 0,10,20.00,30.00,WinterDesignDay
8,-36.2
10,71335656.31248448
631,1163222443.415063
668,0.0
2,1, 1,21, 0,10,30.00,40.00,WinterDesignDay
8,-36.2
10,71335656.31248448
631,1155968056.1075989
668,0.0