Program Version,EnergyPlus, Version 8.9.0-eba93e8e1b, YMD=2019.03.20 18:03
1,5,Environment Title[],Latitude[deg],Longitude[deg],Time Zone[],Elevation[m]
2,8,Day of Simulation[],Month[],Day of Month[],DST Indicator[1=yes 0=no],Hour[],StartMinute[],EndMinute[],DayType
3,5,Cumulative Day of Simulation[],Month[],Day of Month[],DST Indicator[1=yes 0=no],DayType  ! When Daily Report Variables Requested
4,2,Cumulative Days of Simulation[],Month[]  ! When Monthly Report Variables Requested
5,1,Cumulative Days of Simulation[] ! When Run Period Report Variables Requested
6,1,Calendar Year of Simulation[] ! When Annual Report Variables Requested
7,9,Environment,Site Outdoor Air Drybulb Temperature [C] !Monthly [Value,Min,Day,Hour,Minute,Max,Day,Hour,Minute]
8,1,Environment,Site Outdoor Air Wetbulb Temperature [C] !TimeStep
927,1,WASHROOM-SCH-C-SPACE FUNCTION ZN,Zone Air Temperature [C] !Hourly
928,7,WASHROOM-SCH-C-SPACE FUNCTION ZN,Zone Air Relative Humidity [%] !Daily [Value,Min,Hour,Minute,Max,Hour,Minute]
967,1,WASHROOM-SCH-D-SPACE FUNCTION ZN,Zone Air Temperature [C] !Hourly
968,7,WASHROOM-SCH-D-SPACE FUNCTION ZN,Zone Air Relative Humidity [%] !Daily [Value,Min,Hour,Minute,Max,Hour,Minute]
1007,1,WASHROOM-SCH-E-SPACE FUNCTION ZN,Zone Air Temperature [C] !Hourly
1008,7,WASHROOM-SCH-E-SPACE FUNCTION ZN,Zone Air Relative Humidity [%] !Daily [Value,Min,Hour,Minute,Max,Hour,Minute]
1047,1,WASHROOM-SCH-F-SPACE FUNCTION ZN,Zone Air Temperature [C] !Hourly
1048,7,WASHROOM-SCH-F-SPACE FUNCTION ZN,Zone Air Relative Humidity [%] !Daily [Value,Min,Hour,Minute,Max,Hour,Minute]
1087,1,WASHROOM-SCH-G-SPACE FUNCTION ZN,Zone Air Temperature [C] !Hourly
1088,7,WASHROOM-SCH-G-SPACE FUNCTION ZN,Zone Air Relative Humidity [%] !Daily [Value,Min,Hour,Minute,Max,Hour,Minute]
1127,1,WASHROOM-SCH-H-SPACE FUNCTION ZN,Zone Air Temperature [C] !Hourly
1128,7,WASHROOM-SCH-H-SPACE FUNCTION ZN,Zone Air Relative Humidity [%] !Daily [Value,Min,Hour,Minute,Max,Hour,Minute]
1167,1,WASHROOM-SCH-I-SPACE FUNCTION ZN,Zone Air Temperature [C] !Hourly
1168,7,WASHROOM-SCH-I-SPACE FUNCTION ZN,Zone Air Relative Humidity [%] !Daily [Value,Min,Hour,Minute,Max,Hour,Minute]
1207,1,WHOLEBUILDING-AUTOMOTIVE FACILITY 1 ZN,Zone Air Temperature [C] !Hourly
1208,7,WHOLEBUILDING-AUTOMOTIVE FACILITY 1 ZN,Zone Air Relative Humidity [%] !Daily [Value,Min,Hour,Minute,Max,Hour,Minute]
1247,1,WHOLEBUILDING-AUTOMOTIVE FACILITY 2 ZN,Zone Air Temperature [C] !Hourly
1248,7,WHOLEBUILDING-AUTOMOTIVE FACILITY 2 ZN,Zone Air Relative Humidity [%] !Daily [Value,Min,Hour,Minute,Max,Hour,Minute]
1287,1,WHOLEBUILDING-AUTOMOTIVE FACILITY 3 ZN,Zone Air Temperature [C] !Hourly
1288,7,WHOLEBUILDING-AUTOMOTIVE FACILITY 3 ZN,Zone Air Relative Humidity [%] !Daily [Value,Min,Hour,Minute,Max,Hour,Minute]
1327,1,WHOLEBUILDING-AUTOMOTIVE FACILITY 4 ZN,Zone Air Temperature [C] !Hourly
1328,7,WHOLEBUILDING-AUTOMOTIVE FACILITY 4 ZN,Zone Air Relative Humidity [%] !Daily [Value,Min,Hour,Minute,Max,Hour,Minute]
1367,1,WHOLEBUILDING-AUTOMOTIVE FACILITY 5 ZN,Zone Air Temperature [C] !Hourly
1368,7,WHOLEBUILDING-AUTOMOTIVE FACILITY 5 ZN,Zone Air Relative Humidity [%] !Daily [Value,Min,Hour,Minute,Max,Hour,Minute]
1407,1,WHOLEBUILDING-AUTOMOTIVE FACILITY ZN,Zone Air Temperature [C] !Hourly
1408,7,WHOLEBUILDING-AUTOMOTIVE FACILITY ZN,Zone Air Relative Humidity [%] !Daily [Value,Min,Hour,Minute,Max,Hour,Minute]
1447,1,WHOLEBUILDING-SPORTS ARENA ZN,Zone Air Temperature [C] !Hourly
1448,7,WHOLEBUILDING-SPORTS ARENA ZN,Zone Air Relative Humidity [%] !Daily [Value,Min,Hour,Minute,Max,Hour,Minute]
1487,1,WHOLEBUILDING-TOWN HALL ZN,Zone Air Temperature [C] !Hourly
1488,7,WHOLEBUILDING-TOWN HALL ZN,Zone Air Relative Humidity [%] !Daily [Value,Min,Hour,Minute,Max,Hour,Minute]
1527,1,WHOLEBUILDING-TRANSPORTATION ZN,Zone Air Temperature [C] !Hourly
1528,7,WHOLEBUILDING-TRANSPORTATION ZN,Zone Air Relative Humidity [%] !Daily [Value,Min,Hour,Minute,Max,Hour,Minute]
1567,1,WHOLEBUILDING-WAREHOUSE - REFRIGERATED ZN,Zone Air Temperature [C] !Hourly
1568,7,WHOLEBUILDING-WAREHOUSE - REFRIGERATED ZN,Zone Air Relative Humidity [%] !Daily [Value,Min,Hour,Minute,Max,Hour,Minute]
1607,1,WHOLEBUILDING-WAREHOUSE ZN,Zone Air Temperature [C] !Hourly
1608,7,WHOLEBUILDING-WAREHOUSE ZN,Zone Air Relative Humidity [%] !Daily [Value,Min,Hour,Minute,Max,Hour,Minute]
1647,1,WHOLEBUILDING-WORKSHOP ZN,Zone Air Temperature [C] !Hourly
1648,7,WHOLEBUILDING-WORKSHOP ZN,Zone Air Relative Humidity [%] !Daily [Value,Min,Hour,Minute,Max,Hour,Minute]
1687,1,WORKSHOP SPACE-SPACE FUNCTION ZN,Zone Air Temperature [C] !Hourly
1688,7,WORKSHOP SPACE-SPACE FUNCTION ZN,Zone Air Relative Humidity [%] !Daily [Value,Min,Hour,Minute,Max,Hour,Minute]
10,1,Electricity:Facility [J] !TimeStep
1838,1,DistrictCooling:Facility [J] !TimeStep
1801,1,DistrictHeating:Facility [J] !TimeStep
End of Data Dictionary
1,FORT MCMURRAY AP ANN CLG .4% CONDNS DB=>MWB,  56.65,-111.22,  -7.00, 369.10
2,1, 7,21, 0, 1, 0.00,10.00,SummerDesignDay
8,14.218136923962174
10,58720761.31344839
1801,0.0
1838,60071237.70206645
2,1, 7,21, 0, 1,10.00,20.00,SummerDesignDay
8,14.171982153293495
10,58720761.31344839
1801,0.0
1838,58867597.58479888
2,1, 7,21, 0, 1,20.00,30.00,SummerDesignDay
8,14.125744780286427
10,58720761.31344839
1801,0.0
1838,57883557.862514939
2,1, 7,21, 0, 1,30.00,40.00,SummerDesignDay
8,14.079436086331978
10,58720761.31344839
1801,0.0
1838,56926022.72906432
2,1, 7,21, 0, 1,40.00,50.00,SummerDesignDay
8,14.033050387896898
10,58720761.31344839
1801,0.0
1838,55985978.41632313
2,1, 7,21, 0, 1,50.00,60.00,SummerDesignDay
8,13.986581233564835
10,58720761.31344839
1801,0.0
1838,55067650.353042159
2,1, 7,21, 0, 1, 0.00,60.00,SummerDesignDay
927,23.596313782215295
967,23.736707968283949
1007,24.024730937619279
1047,24.000000000000015
1087,24.0
1127,24.0
1167,25.364096262456298
1207,22.567921966718257
1247,23.089779925341046
1287,23.599947159649067
1327,22.82327071789128
1367,23.44693740310578
1407,22.890239316056737
1447,24.00000000000001
1487,24.558356454524
1527,24.0
1567,24.565539308865806
1607,23.968092934783816
1647,23.537293077917668
1687,23.95223040765705
2,1, 7,21, 0, 2, 0.00,10.00,SummerDesignDay
8,13.95555882260429
10,44837439.35378755
1801,0.0
1838,41727678.0447969
2,1, 7,21, 0, 2,10.00,20.00,SummerDesignDay
8,13.924507755336454
10,44837439.35378755
1801,0.0
1838,40956357.98516405
2,1, 7,21, 0, 2,20.00,30.00,SummerDesignDay
8,13.893416042989206
10,44837439.35378755
1801,0.0
1838,40295591.25519886
2,1, 7,21, 0, 2,30.00,40.00,SummerDesignDay
8,13.862289589689029
10,44837439.35378755
1801,0.0
1838,39645567.60611099
2,1, 7,21, 0, 2,40.00,50.00,SummerDesignDay
8,13.831134407608739
10,44837439.35378755
1801,0.0
1838,39005228.0271505
2,1, 7,21, 0, 2,50.00,60.00,SummerDesignDay
8,13.799938415548118
10,44837439.35378755
1801,0.0
1838,38370987.70110807
2,1, 7,21, 0, 2, 0.00,60.00,SummerDesignDay
927,23.30234269807961
967,23.406610311139415
1007,23.69161734339333
1047,24.000000000000005
1087,24.00000000000001
1127,24.00000000000001
1167,25.443231096016964
1207,22.293935193740837
1247,22.8417524560019
1287,23.32374761963708
1327,22.544011718180163
1367,23.170190602508439
1407,22.609549595509546
1447,24.612043506732858
1487,24.41487032775127
1527,24.00000000000004
1567,24.429678576124929
1607,23.837527151275194
1647,23.067273108386016
1687,23.555675578112927
2,1, 7,21, 0, 3, 0.00,10.00,SummerDesignDay
8,13.776521671948676
10,40607474.55823296
1801,0.0
1838,37796221.102737467
2,1, 7,21, 0, 3,10.00,20.00,SummerDesignDay
8,13.753085235778466
10,40607474.55823296
1801,0.0
1838,37219418.813451837
2,1, 7,21, 0, 3,20.00,30.00,SummerDesignDay
8,13.729636002354969
10,40607474.55823296
1801,0.0
1838,36639008.27654352
2,1, 7,21, 0, 3,30.00,40.00,SummerDesignDay
8,13.706147375533054
10,40607474.55823296
1801,0.0
1838,36055616.69246294
2,1, 7,21, 0, 3,40.00,50.00,SummerDesignDay
8,13.682651961920304
10,40607474.55823296
1801,0.0
1838,35470128.182149808
2,1, 7,21, 0, 3,50.00,60.00,SummerDesignDay
8,13.659136670643687
10,40607474.55823296
1801,0.0
1838,34883316.13209558
2,1, 7,21, 0, 3, 0.00,60.00,SummerDesignDay
927,23.059488146250364
967,23.118425857732534
1007,23.42283270470759
1047,24.000000000000019
1087,24.00000000000001
1127,24.000000000000019
1167,25.13161798696659
1207,22.083222006023037
1247,22.649592653092215
1287,23.105892049190996
1327,22.32538927836652
1367,22.94861127054847
1407,22.390005563108305
1447,24.334619523591788
1487,24.282879046447943
1527,24.00000000000001
1567,24.320567992257286
1607,23.73483273752396
1647,22.692162205374147
1687,23.237489180593696
2,1, 7,21, 0, 4, 0.00,10.00,SummerDesignDay
8,13.63560137410855
10,39039987.60280072
1801,0.0
1838,33534866.388888524
2,1, 7,21, 0, 4,10.00,20.00,SummerDesignDay
8,13.612040802606578
10,39039987.60280072
1801,0.0
1838,32847758.49423373
2,1, 7,21, 0, 4,20.00,30.00,SummerDesignDay
8,13.58846620506876
10,39039987.60280072
1801,0.0
1838,32201341.51752886
2,1, 7,21, 0, 4,30.00,40.00,SummerDesignDay
8,13.56487178447336
10,39039987.60280072
1801,0.0
1838,31558982.305389964
2,1, 7,21, 0, 4,40.00,50.00,SummerDesignDay
8,13.541257354069103
10,39039987.60280072
1801,0.0
1838,30886396.88635809
2,1, 7,21, 0, 4,50.00,60.00,SummerDesignDay
8,13.517617463812285
10,39039987.60280072
1801,0.0
1838,30210607.467600027
2,1, 7,21, 0, 4, 0.00,60.00,SummerDesignDay
927,22.84476606179365
967,22.857597353639837
1007,23.178999452825726
1047,24.0
1087,24.000000000000005
1127,24.0
1167,24.93006547802888
1207,21.89578233404251
1247,22.476252552367499
1287,22.90482363954315
1327,22.128655681300825
1367,22.74608831664683
1407,22.192687477134667
1447,24.04323027945558
1487,24.162295462993276
1527,24.000000000000015
1567,24.21762625207259
1607,23.64252089151054
1647,22.35977083735781
1687,22.94591501768709
2,1, 7,21, 0, 5, 0.00,10.00,SummerDesignDay
8,13.50185415824011
10,39039987.60280072
1801,0.0
1838,29603891.997017024
2,1, 7,21, 0, 5,10.00,20.00,SummerDesignDay
8,13.486076034032447
10,39039987.60280072
1801,0.0
1838,29987125.535183185
2,1, 7,21, 0, 5,20.00,30.00,SummerDesignDay
8,13.470289340350983
10,39039987.60280072
1801,0.0
1838,30254932.71288825
2,1, 7,21, 0, 5,30.00,40.00,SummerDesignDay
8,13.454493322631063
10,39039987.60280072
1801,0.0
1838,30494421.23739668
2,1, 7,21, 0, 5,40.00,50.00,SummerDesignDay
8,13.438688835118548
10,39039987.60280072
1801,0.0
1838,30680598.268333794
2,1, 7,21, 0, 5,50.00,60.00,SummerDesignDay
8,13.422888173889437
10,39039987.60280072
1801,0.0
1838,30723915.937961274
2,1, 7,21, 0, 5, 0.00,60.00,SummerDesignDay
927,22.702412317676179
967,22.688554369129606
1007,23.243651463252378
1047,24.0
1087,24.00000000000001
1127,24.000000000000019
1167,24.853784302900484
1207,21.72244418376414
1247,22.314792510674335
1287,22.81999792586679
1327,21.94520838291501
1367,22.563301279995757
1407,22.00927137695832
1447,23.938927505362249
1487,24.048539021308213
1527,24.0
1567,24.181984437020878
1607,23.55510592479217
1647,22.120864766009146
1687,22.68279175602518
2,1, 7,21, 0, 6, 0.00,10.00,SummerDesignDay
8,13.438688835118548
10,39039987.60280072
1801,0.0
1838,30902022.59332548
2,1, 7,21, 0, 6,10.00,20.00,SummerDesignDay
8,13.454493322631063
10,39039987.60280072
1801,0.0
1838,30974489.87494941
2,1, 7,21, 0, 6,20.00,30.00,SummerDesignDay
8,13.470289340350983
10,39039987.60280072
1801,0.0
1838,30980838.407377095
2,1, 7,21, 0, 6,30.00,40.00,SummerDesignDay
8,13.486076034032447
10,39039987.60280072
1801,0.0
1838,30958736.06771335
2,1, 7,21, 0, 6,40.00,50.00,SummerDesignDay
8,13.50185415824011
10,39039987.60280072
1801,0.0
1838,30926457.165068058
2,1, 7,21, 0, 6,50.00,60.00,SummerDesignDay
8,13.517617463812285
10,39039987.60280072
1801,0.0
1838,30926471.918616624
2,1, 7,21, 0, 6, 0.00,60.00,SummerDesignDay
927,22.831328956470334
967,22.836995768155345
1007,24.476103250111135
1047,24.000000000000015
1087,24.0
1127,24.000000000000015
1167,25.245315286076509
1207,21.621426535964319
1247,22.228163837529427
1287,23.153354138274368
1327,21.83299732489107
1367,22.4703750410018
1407,21.90802802828271
1447,23.965872614731599
1487,23.967346325106264
1527,24.000000000000019
1567,24.247097435563565
1607,23.499053228059073
1647,22.18796553915799
1687,22.54012739029412
2,1, 7,21, 0, 7, 0.00,10.00,SummerDesignDay
8,13.572736920571789
10,42733706.86349444
1801,0.0
1838,38752920.23744191
2,1, 7,21, 0, 7,10.00,20.00,SummerDesignDay
8,13.627748229152554
10,42733706.86349444
1801,0.0
1838,33895093.57573859
2,1, 7,21, 0, 7,20.00,30.00,SummerDesignDay
8,13.682651961920304
10,42733706.86349444
1801,0.0
1838,34649741.26265793
2,1, 7,21, 0, 7,30.00,40.00,SummerDesignDay
8,13.737448093244995
10,42733706.86349444
1801,0.0
1838,37507852.861681308
2,1, 7,21, 0, 7,40.00,50.00,SummerDesignDay
8,13.792137011831216
10,42733706.86349444
1801,0.0
1838,37251406.55814867
2,1, 7,21, 0, 7,50.00,60.00,SummerDesignDay
8,13.846719282840333
10,42733706.86349444
1801,0.0
1838,38424984.22263525
2,1, 7,21, 0, 7, 0.00,60.00,SummerDesignDay
927,23.28910575298694
967,23.337334552243886
1007,26.136844642372738
1047,24.000000000000005
1087,24.0
1127,24.000000000000019
1167,25.812702777616534
1207,21.674351005930018
1247,22.28793685766614
1287,23.642054556712539
1327,21.872974853183295
1367,22.530230727343555
1407,21.984976632267619
1447,23.95868915043266
1487,23.9587372350577
1527,24.00000000000003
1567,23.991707491375974
1607,23.509506048187757
1647,22.618210166426576
1687,22.6098257881066
2,1, 7,21, 0, 8, 0.00,10.00,SummerDesignDay
8,13.978831900527043
10,64639149.55814416
1801,0.0
1838,103123588.2633608
2,1, 7,21, 0, 8,10.00,20.00,SummerDesignDay
8,14.110321014287419
10,64639149.55814416
1801,0.0
1838,65571871.41043298
2,1, 7,21, 0, 8,20.00,30.00,SummerDesignDay
8,14.241191509616986
10,64639149.55814416
1801,0.0
1838,87162995.82352957
2,1, 7,21, 0, 8,30.00,40.00,SummerDesignDay
8,14.371447531304272
10,64639149.55814416
1801,0.0
1838,101977321.5853976
2,1, 7,21, 0, 8,40.00,50.00,SummerDesignDay
8,14.501093766564925
10,64639149.55814416
1801,0.0
1838,104504633.02295283
2,1, 7,21, 0, 8,50.00,60.00,SummerDesignDay
8,14.630134792273804
10,64639149.55814416
1801,0.0
1838,114579352.94572114
2,1, 7,21, 0, 8, 0.00,60.00,SummerDesignDay
927,23.916357237021477
967,23.943569096876656
1007,23.945236589054209
1047,24.000000000000005
1087,24.000000000000015
1127,23.999999999999998
1167,26.37575511681426
1207,21.978421094461678
1247,22.580455404879016
1287,23.98439693215806
1327,22.16147461630384
1367,22.832293970521403
1407,22.32920943422336
1447,24.158715608962188
1487,23.997879719550086
1527,24.000000000000005
1567,23.99999999999912
1607,23.76865424787533
1647,23.74295382766368
1687,23.33664154144527
2,1, 7,21, 0, 9, 0.00,10.00,SummerDesignDay
8,14.773641492809972
10,158669616.98902697
1801,0.0
1838,173061404.55658988
2,1, 7,21, 0, 9,10.00,20.00,SummerDesignDay
8,14.91640948124148
10,158669616.98902697
1801,0.0
1838,185765143.000739
2,1, 7,21, 0, 9,20.00,30.00,SummerDesignDay
8,15.05843890714102
10,158669616.98902697
1801,0.0
1838,198612221.02844227
2,1, 7,21, 0, 9,30.00,40.00,SummerDesignDay
8,15.199735893563798
10,158669616.98902697
1801,0.0
1838,210634335.7706924
2,1, 7,21, 0, 9,40.00,50.00,SummerDesignDay
8,15.340306256439395
10,158669616.98902697
1801,0.0
1838,225606545.05452658
2,1, 7,21, 0, 9,50.00,60.00,SummerDesignDay
8,15.48015101768072
10,158669616.98902697
1801,0.0
1838,238746053.74519468
2,1, 7,21, 0, 9, 0.00,60.00,SummerDesignDay
927,23.999999999997177
967,23.999999999997909
1007,23.999999999814937
1047,24.00000000000001
1087,23.99999999999999
1127,23.999999999999998
1167,26.943891632364683
1207,23.087656181475557
1247,23.59033655329927
1287,23.99999999994495
1327,23.25076402554907
1367,23.777091050154323
1407,23.47396786451215
1447,23.99426302020719
1487,24.0
1527,24.000000000000019
1567,24.00000000000001
1607,23.999943509702097
1647,23.999999967752307
1687,23.998446370209114
2,1, 7,21, 0,10, 0.00,10.00,SummerDesignDay
8,15.60467292907716
10,222659084.43266488
1801,0.0
1838,302516055.84362319
2,1, 7,21, 0,10,10.00,20.00,SummerDesignDay
8,15.72862731650033
10,222659084.43266488
1801,0.0
1838,331980631.2289299
2,1, 7,21, 0,10,20.00,30.00,SummerDesignDay
8,15.852017409284228
10,222659084.43266488
1801,0.0
1838,350389937.3058144
2,1, 7,21, 0,10,30.00,40.00,SummerDesignDay
8,15.974848118364367
10,222659084.43266488
1801,0.0
1838,362966372.05128458
2,1, 7,21, 0,10,40.00,50.00,SummerDesignDay
8,16.097123145563505
10,222659084.43266488
1801,0.0
1838,378058676.1243327
2,1, 7,21, 0,10,50.00,60.00,SummerDesignDay
8,16.218846351168599
10,222659084.43266488
1801,0.0
1838,391580198.7716945
2,1, 7,21, 0,10, 0.00,60.00,SummerDesignDay
927,24.00000000000003
967,23.999999999999984
1007,24.00000000000003
1047,23.999999999999998
1087,24.0
1127,23.999999999999969
1167,27.34671136340411
1207,23.974931123450813
1247,23.999972061563004
1287,24.000000000000015
1327,23.98911250484275
1367,23.99999978242765
1407,23.99994629272392
1447,23.999999999999959
1487,24.00000000000003
1527,24.00000000000001
1567,24.00000000000001
1607,24.000000000000005
1647,24.000000000000033
1687,23.999999999983204
2,1, 7,21, 0,11, 0.00,10.00,SummerDesignDay
8,16.325793027093189
10,247825124.98720429
1801,0.0
1838,422289461.1072927
2,1, 7,21, 0,11,10.00,20.00,SummerDesignDay
8,16.432322158488288
10,247825124.98720429
1801,0.0
1838,434358571.8892449
2,1, 7,21, 0,11,20.00,30.00,SummerDesignDay
8,16.538424180249178
10,247825124.98720429
1801,0.0
1838,445449156.03675898
2,1, 7,21, 0,11,30.00,40.00,SummerDesignDay
8,16.644108396469087
10,247825124.98720429
1801,0.0
1838,456276538.1051897
2,1, 7,21, 0,11,40.00,50.00,SummerDesignDay
8,16.749376736593655
10,247825124.98720429
1801,0.0
1838,466848281.27847817
2,1, 7,21, 0,11,50.00,60.00,SummerDesignDay
8,16.854232613237156
10,247825124.98720429
1801,0.0
1838,477217610.5005851
2,1, 7,21, 0,11, 0.00,60.00,SummerDesignDay
927,24.000000000000069
967,24.00000000000006
1007,24.00000000000006
1047,24.000000000000005
1087,24.000000000000019
1127,24.0
1167,27.49771395455574
1207,23.99999999867046
1247,23.999999999999376
1287,24.000000000000026
1327,23.999999999731178
1367,24.000000000000005
1407,23.999999999998889
1447,24.000000000000015
1487,24.0
1527,24.00000000000001
1567,23.99999999999999
1607,24.000000000000005
1647,23.999999999999984
1687,24.00000000000003
2,1, 7,21, 0,12, 0.00,10.00,SummerDesignDay
8,16.92390823520069
10,248372620.42954929
1801,0.0
1838,487299987.12604418
2,1, 7,21, 0,12,10.00,20.00,SummerDesignDay
8,16.99340178950456
10,248372620.42954929
1801,0.0
1838,495184451.27639809
2,1, 7,21, 0,12,20.00,30.00,SummerDesignDay
8,17.06272006743463
10,248372620.42954929
1801,0.0
1838,503014623.7228451
2,1, 7,21, 0,12,30.00,40.00,SummerDesignDay
8,17.131853229172639
10,248372620.42954929
1801,0.0
1838,510779421.49264636
2,1, 7,21, 0,12,40.00,50.00,SummerDesignDay
8,17.200807172194087
10,248372620.42954929
1801,0.0
1838,518441433.5096969
2,1, 7,21, 0,12,50.00,60.00,SummerDesignDay
8,17.269582116758607
10,248372620.42954929
1801,0.0
1838,525953600.77114859
2,1, 7,21, 0,12, 0.00,60.00,SummerDesignDay
927,24.000000000000015
967,24.0
1007,23.99999999999996
1047,24.000000000000015
1087,24.000000000000019
1127,23.999999999999976
1167,27.466988347047424
1207,23.99999999999999
1247,23.99999999999999
1287,24.000000000000019
1327,24.000000000000015
1367,24.00000000000003
1407,24.000000000000005
1447,24.000000000000019
1487,24.00000000000003
1527,23.999999999999984
1567,24.000000000000015
1607,24.0
1647,24.00000000000003
1687,24.00000000000003
2,1, 7,21, 0,13, 0.00,10.00,SummerDesignDay
8,17.32447360221357
10,246805133.47411705
1801,0.0
1838,532759349.0163738
2,1, 7,21, 0,13,10.00,20.00,SummerDesignDay
8,17.379251291230806
10,246805133.47411705
1801,0.0
1838,538790234.0185287
2,1, 7,21, 0,13,20.00,30.00,SummerDesignDay
8,17.433921312061729
10,246805133.47411705
1801,0.0
1838,544614289.7677146
2,1, 7,21, 0,13,30.00,40.00,SummerDesignDay
8,17.488473222557489
10,246805133.47411705
1801,0.0
1838,550369347.6092017
2,1, 7,21, 0,13,40.00,50.00,SummerDesignDay
8,17.542913447755134
10,246805133.47411705
1801,0.0
1838,555935634.0438389
2,1, 7,21, 0,13,50.00,60.00,SummerDesignDay
8,17.59724609886134
10,246805133.47411705
1801,0.0
1838,561219076.0301774
2,1, 7,21, 0,13, 0.00,60.00,SummerDesignDay
927,24.000000000000055
967,24.00000000000007
1007,24.0
1047,24.000000000000015
1087,24.000000000000026
1127,24.0
1167,27.656815610859558
1207,24.0
1247,23.999999999999987
1287,23.999999999999969
1327,23.99999999999999
1367,24.000000000000026
1407,23.99999999999999
1447,24.000000000000044
1487,24.000000000000019
1527,24.000000000000019
1567,24.00000000000001
1607,23.999999999999998
1647,24.0
1687,24.00000000000003
2,1, 7,21, 0,14, 0.00,10.00,SummerDesignDay
8,17.6311450462694
10,246805133.47411705
1801,0.0
1838,564109802.9513934
2,1, 7,21, 0,14,10.00,20.00,SummerDesignDay
8,17.665000449016245
10,246805133.47411705
1801,0.0
1838,567541001.6959608
2,1, 7,21, 0,14,20.00,30.00,SummerDesignDay
8,17.698812743128934
10,246805133.47411705
1801,0.0
1838,570907964.0674322
2,1, 7,21, 0,14,30.00,40.00,SummerDesignDay
8,17.732582050940107
10,246805133.47411705
1801,0.0
1838,574267983.9996086
2,1, 7,21, 0,14,40.00,50.00,SummerDesignDay
8,17.766307345121004
10,246805133.47411705
1801,0.0
1838,577642272.9303366
2,1, 7,21, 0,14,50.00,60.00,SummerDesignDay
8,17.79999023167558
10,246805133.47411705
1801,0.0
1838,581040264.2332808
2,1, 7,21, 0,14, 0.00,60.00,SummerDesignDay
927,23.999999999999984
967,24.00000000000007
1007,24.0
1047,24.0
1087,24.000000000000019
1127,24.000000000000069
1167,27.910132999571944
1207,23.999999999999987
1247,24.000000000000015
1287,24.00000000000001
1327,24.000000000000015
1367,24.00000000000004
1407,24.00000000000003
1447,24.00000000000003
1487,24.000000000000019
1527,24.00000000000003
1567,24.00000000000001
1607,24.0
1647,24.000000000000047
1687,24.000000000000019
2,1, 7,21, 0,15, 0.00,10.00,SummerDesignDay
8,17.79999023167558
10,246805133.47411705
1801,0.0
1838,642571841.462679
2,1, 7,21, 0,15,10.00,20.00,SummerDesignDay
8,17.79999023167558
10,246805133.47411705
1801,0.0
1838,592098572.3321433
2,1, 7,21, 0,15,20.00,30.00,SummerDesignDay
8,17.79999023167558
10,246805133.47411705
1801,0.0
1838,620342442.2156931
2,1, 7,21, 0,15,30.00,40.00,SummerDesignDay
8,17.79999023167558
10,246805133.47411705
1801,0.0
1838,591741212.1028177
2,1, 7,21, 0,15,40.00,50.00,SummerDesignDay
8,17.79999023167558
10,246805133.47411705
1801,0.0
1838,594637069.5052186
2,1, 7,21, 0,15,50.00,60.00,SummerDesignDay
8,17.79999023167558
10,246805133.47411705
1801,0.0
1838,594309896.4763587
2,1, 7,21, 0,15, 0.00,60.00,SummerDesignDay
927,24.000000000000033
967,23.99999999999996
1007,24.000000000000044
1047,24.0
1087,24.000000000000019
1127,24.00000000000004
1167,23.836683398869118
1207,24.00000000000001
1247,24.000000000000019
1287,24.00000000000001
1327,24.000000000000019
1367,24.00000000000001
1407,24.00000000000001
1447,24.00000000000003
1487,24.000000000000005
1527,24.00000000000003
1567,24.000000000000015
1607,24.0
1647,23.999999999999969
1687,24.000000000000033
2,1, 7,21, 0,16, 0.00,10.00,SummerDesignDay
8,17.759562446305357
10,251701655.22489885
1801,0.0
1838,599924392.9918765
2,1, 7,21, 0,16,10.00,20.00,SummerDesignDay
8,17.71907809634183
10,251701655.22489885
1801,0.0
1838,596701886.6218566
2,1, 7,21, 0,16,20.00,30.00,SummerDesignDay
8,17.67853788661001
10,251701655.22489885
1801,0.0
1838,592839378.0999681
2,1, 7,21, 0,16,30.00,40.00,SummerDesignDay
8,17.63791796367351
10,251701655.22489885
1801,0.0
1838,588581940.4593879
2,1, 7,21, 0,16,40.00,50.00,SummerDesignDay
8,17.59724609886134
10,251701655.22489885
1801,0.0
1838,583985243.957409
2,1, 7,21, 0,16,50.00,60.00,SummerDesignDay
8,17.55650676726033
10,251701655.22489885
1801,0.0
1838,579090249.8697195
2,1, 7,21, 0,16, 0.00,60.00,SummerDesignDay
927,23.99999999999999
967,24.000000000000055
1007,24.000000000000044
1047,24.000000000000005
1087,24.00000000000001
1127,24.000000000000019
1167,23.99999999999993
1207,24.00000000000003
1247,24.00000000000001
1287,24.000000000000033
1327,24.000000000000015
1367,24.00000000000001
1407,24.000000000000019
1447,24.00000000000001
1487,24.000000000000019
1527,24.000000000000069
1567,24.0
1607,24.00000000000001
1647,24.000000000000033
1687,24.00000000000006
2,1, 7,21, 0,17, 0.00,10.00,SummerDesignDay
8,17.50209486331892
10,245547956.43966536
1801,0.0
1838,566266662.8210005
2,1, 7,21, 0,17,10.00,20.00,SummerDesignDay
8,17.447570789624618
10,245547956.43966536
1801,0.0
1838,559443499.0791489
2,1, 7,21, 0,17,20.00,30.00,SummerDesignDay
8,17.392929544208135
10,245547956.43966536
1801,0.0
1838,552772976.3123996
2,1, 7,21, 0,17,30.00,40.00,SummerDesignDay
8,17.33818013976614
10,245547956.43966536
1801,0.0
1838,545978274.2415162
2,1, 7,21, 0,17,40.00,50.00,SummerDesignDay
8,17.283317298559309
10,245547956.43966536
1801,0.0
1838,539086180.5578084
2,1, 7,21, 0,17,50.00,60.00,SummerDesignDay
8,17.22833552437677
10,245547956.43966536
1801,0.0
1838,532074306.31878867
2,1, 7,21, 0,17, 0.00,60.00,SummerDesignDay
927,24.000000000000026
967,23.999999999999998
1007,24.000000000000055
1047,24.000000000000005
1087,24.000000000000015
1127,23.999999999999969
1167,24.0
1207,24.0
1247,24.000000000000026
1287,24.000000000000015
1327,24.000000000000026
1367,24.000000000000019
1407,24.000000000000019
1447,24.000000000000019
1487,24.000000000000033
1527,24.00000000000004
1567,24.00000000000001
1607,24.0
1647,23.99999999999996
1687,24.00000000000004
2,1, 7,21, 0,18, 0.00,10.00,SummerDesignDay
8,17.159453019160176
10,233971802.78252993
1801,0.0
1838,516893540.2102114
2,1, 7,21, 0,18,10.00,20.00,SummerDesignDay
8,17.090391773337136
10,233971802.78252993
1801,0.0
1838,507832020.1211925
2,1, 7,21, 0,18,20.00,30.00,SummerDesignDay
8,17.021151077964786
10,233971802.78252993
1801,0.0
1838,499069656.9310649
2,1, 7,21, 0,18,30.00,40.00,SummerDesignDay
8,16.951729380464653
10,233971802.78252993
1801,0.0
1838,490385524.8854959
2,1, 7,21, 0,18,40.00,50.00,SummerDesignDay
8,16.882126503829249
10,233971802.78252993
1801,0.0
1838,481820134.9486582
2,1, 7,21, 0,18,50.00,60.00,SummerDesignDay
8,16.812341807494034
10,233971802.78252993
1801,0.0
1838,473323940.3974788
2,1, 7,21, 0,18, 0.00,60.00,SummerDesignDay
927,24.000000000000026
967,23.999999999999998
1007,23.999999999999984
1047,24.000000000000005
1087,24.000000000000005
1127,24.00000000000003
1167,24.000000000000019
1207,24.00000000000001
1247,24.000000000000019
1287,24.00000000000001
1327,24.00000000000003
1367,24.000000000000019
1407,24.00000000000004
1447,24.0
1487,24.0
1527,24.0
1567,24.0
1607,24.0
1647,24.00000000000001
1687,24.000000000000026
2,1, 7,21, 0,19, 0.00,10.00,SummerDesignDay
8,16.707321072823203
10,156178700.22374935
1801,0.0
1838,411265596.37640199
2,1, 7,21, 0,19,10.00,20.00,SummerDesignDay
8,16.601881826644556
10,156178700.22374935
1801,0.0
1838,396506650.71108606
2,1, 7,21, 0,19,20.00,30.00,SummerDesignDay
8,16.496030555252849
10,156178700.22374935
1801,0.0
1838,383902419.426847
2,1, 7,21, 0,19,30.00,40.00,SummerDesignDay
8,16.389760181474104
10,156178700.22374935
1801,0.0
1838,371530798.31106749
2,1, 7,21, 0,19,40.00,50.00,SummerDesignDay
8,16.283067654262039
10,156178700.22374935
1801,0.0
1838,359548221.868903
2,1, 7,21, 0,19,50.00,60.00,SummerDesignDay
8,16.17595057957811
10,156178700.22374935
1801,0.0
1838,347803890.6918272
2,1, 7,21, 0,19, 0.00,60.00,SummerDesignDay
927,24.000000000000005
967,23.999999999999998
1007,24.000000000000015
1047,24.00000000000001
1087,24.00000000000004
1127,23.99999999999999
1167,24.000000000000019
1207,24.0
1247,24.00000000000001
1287,24.000000000000026
1327,24.000000000000005
1367,24.00000000000001
1407,24.0
1447,24.000000000000044
1487,24.000000000000026
1527,24.000000000000015
1567,23.99999999999999
1607,24.000000000000005
1647,24.00000000000004
1687,24.000000000000044
2,1, 7,21, 0,20, 0.00,10.00,SummerDesignDay
8,16.097123145563505
10,119409318.74425209
1801,0.0
1838,252492517.28066553
2,1, 7,21, 0,20,10.00,20.00,SummerDesignDay
8,16.018070242471564
10,119409318.74425209
1801,0.0
1838,246946899.27016018
2,1, 7,21, 0,20,20.00,30.00,SummerDesignDay
8,15.938779752340516
10,119409318.74425209
1801,0.0
1838,241404637.2501151
2,1, 7,21, 0,20,30.00,40.00,SummerDesignDay
8,15.85926152575189
10,119409318.74425209
1801,0.0
1838,235811925.5533714
2,1, 7,21, 0,20,40.00,50.00,SummerDesignDay
8,15.779503718563929
10,119409318.74425209
1801,0.0
1838,229937189.73804669
2,1, 7,21, 0,20,50.00,60.00,SummerDesignDay
8,15.699515709672767
10,119409318.74425209
1801,0.0
1838,223898633.0790686
2,1, 7,21, 0,20, 0.00,60.00,SummerDesignDay
927,24.000000000000019
967,24.00000000000001
1007,25.14090660638202
1047,24.00000000000001
1087,24.000000000000015
1127,24.0
1167,24.000000000000005
1207,24.17459503024648
1247,24.383904191544514
1287,24.80540556942353
1327,24.313709895868329
1367,24.69404160555337
1407,24.35222713466779
1447,24.000000000000005
1487,24.000000000000019
1527,24.0
1567,24.000000000000015
1607,23.999999999999998
1647,24.00000000000003
1687,24.00000000000003
2,1, 7,21, 0,21, 0.00,10.00,SummerDesignDay
8,15.63389147320404
10,120751807.57179746
1801,0.0
1838,218843284.64183337
2,1, 7,21, 0,21,10.00,20.00,SummerDesignDay
8,15.56810827419793
10,120751807.57179746
1801,0.0
1838,212324070.21497033
2,1, 7,21, 0,21,20.00,30.00,SummerDesignDay
8,15.502170882753524
10,120751807.57179746
1801,0.0
1838,205601270.89621667
2,1, 7,21, 0,21,30.00,40.00,SummerDesignDay
8,15.436068032613852
10,120751807.57179746
1801,0.0
1838,198830353.55507536
2,1, 7,21, 0,21,40.00,50.00,SummerDesignDay
8,15.369804371206009
10,120751807.57179746
1801,0.0
1838,192462234.46170307
2,1, 7,21, 0,21,50.00,60.00,SummerDesignDay
8,15.303384603594449
10,120751807.57179746
1801,0.0
1838,185528471.96248944
2,1, 7,21, 0,21, 0.00,60.00,SummerDesignDay
927,24.000000000000015
967,24.000000000000015
1007,25.69589847710644
1047,24.000000000000015
1087,24.0
1127,24.00000000000003
1167,23.99999999999999
1207,23.95694295754753
1247,24.328505422768378
1287,24.95700790750003
1327,24.198708311132408
1367,24.7866113037043
1407,24.260985721341187
1447,24.000000000000026