Program Version,EnergyPlus, Version 8.9.0-eba93e8e1b, YMD=2019.03.19 18:39
1,5,Environment Title[],Latitude[deg],Longitude[deg],Time Zone[],Elevation[m]
2,8,Day of Simulation[],Month[],Day of Month[],DST Indicator[1=yes 0=no],Hour[],StartMinute[],EndMinute[],DayType
3,5,Cumulative Day of Simulation[],Month[],Day of Month[],DST Indicator[1=yes 0=no],DayType  ! When Daily Report Variables Requested
4,2,Cumulative Days of Simulation[],Month[]  ! When Monthly Report Variables Requested
5,1,Cumulative Days of Simulation[] ! When Run Period Report Variables Requested
6,1,Calendar Year of Simulation[] ! When Annual Report Variables Requested
7,9,Environment,Site Outdoor Air Drybulb Temperature [C] !Monthly [Value,Min,Day,Hour,Minute,Max,Day,Hour,Minute]
8,1,Environment,Site Outdoor Air Wetbulb Temperature [C] !TimeStep
875,1,GYM - FITNESS-SPACE FUNCTION ZN,Zone Air Temperature [C] !Hourly
876,7,GYM - FITNESS-SPACE FUNCTION ZN,Zone Air Relative Humidity [%] !Daily [Value,Min,Hour,Minute,Max,Hour,Minute]
915,1,GYM - PLAY-SPACE FUNCTION ZN,Zone Air Temperature [C] !Hourly
916,7,GYM - PLAY-SPACE FUNCTION ZN,Zone Air Relative Humidity [%] !Daily [Value,Min,Hour,Minute,Max,Hour,Minute]
955,1,HOSPITAL - EMERGENCY-SPACE FUNCTION ZN,Zone Air Temperature [C] !Hourly
956,7,HOSPITAL - EMERGENCY-SPACE FUNCTION ZN,Zone Air Relative Humidity [%] !Daily [Value,Min,Hour,Minute,Max,Hour,Minute]
995,1,HOSPITAL - EXAM-SPACE FUNCTION ZN,Zone Air Temperature [C] !Hourly
996,7,HOSPITAL - EXAM-SPACE FUNCTION ZN,Zone Air Relative Humidity [%] !Daily [Value,Min,Hour,Minute,Max,Hour,Minute]
1035,1,HOSPITAL - LAUNDRY/WASHING-SPACE FUNCTION ZN,Zone Air Temperature [C] !Hourly
1036,7,HOSPITAL - LAUNDRY/WASHING-SPACE FUNCTION ZN,Zone Air Relative Humidity [%] !Daily [Value,Min,Hour,Minute,Max,Hour,Minute]
1075,1,HOSPITAL - LOUNGE/RECREATION-SPACE FUNCTION ZN,Zone Air Temperature [C] !Hourly
1076,7,HOSPITAL - LOUNGE/RECREATION-SPACE FUNCTION ZN,Zone Air Relative Humidity [%] !Daily [Value,Min,Hour,Minute,Max,Hour,Minute]
1115,1,HOSPITAL - MEDICAL SUPPLY - OCCSENS-SPACE FUNCTION ZN,Zone Air Temperature [C] !Hourly
1116,7,HOSPITAL - MEDICAL SUPPLY - OCCSENS-SPACE FUNCTION ZN,Zone Air Relative Humidity [%] !Daily [Value,Min,Hour,Minute,Max,Hour,Minute]
1155,1,HOSPITAL - MEDICAL SUPPLY-SPACE FUNCTION ZN,Zone Air Temperature [C] !Hourly
1156,7,HOSPITAL - MEDICAL SUPPLY-SPACE FUNCTION ZN,Zone Air Relative Humidity [%] !Daily [Value,Min,Hour,Minute,Max,Hour,Minute]
1195,1,HOSPITAL - NURSERY-SPACE FUNCTION ZN,Zone Air Temperature [C] !Hourly
1196,7,HOSPITAL - NURSERY-SPACE FUNCTION ZN,Zone Air Relative Humidity [%] !Daily [Value,Min,Hour,Minute,Max,Hour,Minute]
1235,1,HOSPITAL - NURSES STATION-SPACE FUNCTION ZN,Zone Air Temperature [C] !Hourly
1236,7,HOSPITAL - NURSES STATION-SPACE FUNCTION ZN,Zone Air Relative Humidity [%] !Daily [Value,Min,Hour,Minute,Max,Hour,Minute]
1275,1,HOSPITAL - OPERATING ROOM-SPACE FUNCTION ZN,Zone Air Temperature [C] !Hourly
1276,7,HOSPITAL - OPERATING ROOM-SPACE FUNCTION ZN,Zone Air Relative Humidity [%] !Daily [Value,Min,Hour,Minute,Max,Hour,Minute]
1315,1,HOSPITAL - PATIENT ROOM-SPACE FUNCTION ZN,Zone Air Temperature [C] !Hourly
1316,7,HOSPITAL - PATIENT ROOM-SPACE FUNCTION ZN,Zone Air Relative Humidity [%] !Daily [Value,Min,Hour,Minute,Max,Hour,Minute]
1355,1,HOSPITAL - PHARMACY-SPACE FUNCTION ZN,Zone Air Temperature [C] !Hourly
1356,7,HOSPITAL - PHARMACY-SPACE FUNCTION ZN,Zone Air Relative Humidity [%] !Daily [Value,Min,Hour,Minute,Max,Hour,Minute]
1395,1,HOSPITAL - PHYSICAL THERAPY-SPACE FUNCTION ZN,Zone Air Temperature [C] !Hourly
1396,7,HOSPITAL - PHYSICAL THERAPY-SPACE FUNCTION ZN,Zone Air Relative Humidity [%] !Daily [Value,Min,Hour,Minute,Max,Hour,Minute]
1435,1,HOSPITAL - RADIOLOGY/IMAGING-SPACE FUNCTION ZN,Zone Air Temperature [C] !Hourly
1436,7,HOSPITAL - RADIOLOGY/IMAGING-SPACE FUNCTION ZN,Zone Air Relative Humidity [%] !Daily [Value,Min,Hour,Minute,Max,Hour,Minute]
1475,1,HOSPITAL - RECOVERY-SPACE FUNCTION ZN,Zone Air Temperature [C] !Hourly
1476,7,HOSPITAL - RECOVERY-SPACE FUNCTION ZN,Zone Air Relative Humidity [%] !Daily [Value,Min,Hour,Minute,Max,Hour,Minute]
1515,1,HOSPITAL CORR. < 2.4M-SCH-A-SPACE FUNCTION ZN,Zone Air Temperature [C] !Hourly
1516,7,HOSPITAL CORR. < 2.4M-SCH-A-SPACE FUNCTION ZN,Zone Air Relative Humidity [%] !Daily [Value,Min,Hour,Minute,Max,Hour,Minute]
1555,1,HOSPITAL CORR. < 2.4M-SCH-B-SPACE FUNCTION ZN,Zone Air Temperature [C] !Hourly
1556,7,HOSPITAL CORR. < 2.4M-SCH-B-SPACE FUNCTION ZN,Zone Air Relative Humidity [%] !Daily [Value,Min,Hour,Minute,Max,Hour,Minute]
1595,1,HOSPITAL CORR. < 2.4M-SCH-C-SPACE FUNCTION ZN,Zone Air Temperature [C] !Hourly
1596,7,HOSPITAL CORR. < 2.4M-SCH-C-SPACE FUNCTION ZN,Zone Air Relative Humidity [%] !Daily [Value,Min,Hour,Minute,Max,Hour,Minute]
1635,1,HOSPITAL CORR. < 2.4M-SCH-D-SPACE FUNCTION ZN,Zone Air Temperature [C] !Hourly
1636,7,HOSPITAL CORR. < 2.4M-SCH-D-SPACE FUNCTION ZN,Zone Air Relative Humidity [%] !Daily [Value,Min,Hour,Minute,Max,Hour,Minute]
10,1,Electricity:Facility [J] !TimeStep
1786,1,DistrictCooling:Facility [J] !TimeStep
1749,1,DistrictHeating:Facility [J] !TimeStep
End of Data Dictionary
1,FORT MCMURRAY AP ANN CLG .4% CONDNS DB=>MWB,  56.65,-111.22,  -7.00, 369.10
2,1, 7,21, 0, 1, 0.00,10.00,SummerDesignDay
8,14.218136923962174
10,257788229.54972733
1749,0.0
1786,113373411.34083936
2,1, 7,21, 0, 1,10.00,20.00,SummerDesignDay
8,14.171982153293495
10,257788229.54972733
1749,0.0
1786,108311902.02922027
2,1, 7,21, 0, 1,20.00,30.00,SummerDesignDay
8,14.125744780286427
10,257788229.54972733
1749,0.0
1786,103346245.64397879
2,1, 7,21, 0, 1,30.00,40.00,SummerDesignDay
8,14.079436086331978
10,257788229.54972733
1749,0.0
1786,98380394.06955269
2,1, 7,21, 0, 1,40.00,50.00,SummerDesignDay
8,14.033050387896898
10,257788229.54972733
1749,1130476.7058987905
1786,93421692.55946666
2,1, 7,21, 0, 1,50.00,60.00,SummerDesignDay
8,13.986581233564835
10,257788229.54972733
1749,2208111.330389707
1786,88415796.72929442
2,1, 7,21, 0, 1, 0.00,60.00,SummerDesignDay
875,22.166837062300279
915,24.000000000000033
955,24.000000000000033
995,23.79359266065549
1035,24.035206714933098
1075,24.000000000000005
1115,24.00000000000003
1155,24.000000000000026
1195,24.00000000000003
1235,23.99999999999999
1275,23.27411032081071
1315,24.000000000000047
1355,22.04683562522729
1395,21.937829883201585
1435,24.000000000000015
1475,23.1894286602891
1515,24.248505632796677
1555,24.0
1595,24.740675823041547
1635,24.02932446967859
2,1, 7,21, 0, 2, 0.00,10.00,SummerDesignDay
8,13.95555882260429
10,235558414.55712856
1749,8334152.547709769
1786,66847590.691255379
2,1, 7,21, 0, 2,10.00,20.00,SummerDesignDay
8,13.924507755336454
10,235558414.55712856
1749,9564054.918130713
1786,64016339.80634955
2,1, 7,21, 0, 2,20.00,30.00,SummerDesignDay
8,13.893416042989206
10,235558414.55712856
1749,10324708.823611442
1786,61167858.20573694
2,1, 7,21, 0, 2,30.00,40.00,SummerDesignDay
8,13.862289589689029
10,235558414.55712856
1749,11051917.305810923
1786,58553557.77272412
2,1, 7,21, 0, 2,40.00,50.00,SummerDesignDay
8,13.831134407608739
10,235558414.55712856
1749,11741957.582786553
1786,55968059.14930831
2,1, 7,21, 0, 2,50.00,60.00,SummerDesignDay
8,13.799938415548118
10,235558414.55712856
1749,12408802.077423063
1786,53386890.21272312
2,1, 7,21, 0, 2, 0.00,60.00,SummerDesignDay
875,22.000164167265287
915,23.6559135483711
955,23.999999999999955
995,23.475755361314034
1035,23.659778262946039
1075,23.531931134958186
1115,24.000000000000019
1155,24.00000000000004
1195,24.00000000000003
1235,23.985764814173494
1275,22.796284329836284
1315,24.00000000000001
1355,21.699816915648836
1395,21.586871028795256
1435,24.000000000000033
1475,22.813680422775069
1515,24.048973458914899
1555,24.500116157600329
1595,24.53123441654401
1635,23.8313207593977
2,1, 7,21, 0, 3, 0.00,10.00,SummerDesignDay
8,13.776521671948676
10,213328599.56452985
1749,0.0
1786,51264700.52594295
2,1, 7,21, 0, 3,10.00,20.00,SummerDesignDay
8,13.753085235778466
10,213328599.56452985
1749,0.0
1786,49111840.96619938
2,1, 7,21, 0, 3,20.00,30.00,SummerDesignDay
8,13.729636002354969
10,213328599.56452985
1749,0.0
1786,46921781.35355993
2,1, 7,21, 0, 3,30.00,40.00,SummerDesignDay
8,13.706147375533054
10,213328599.56452985
1749,0.0
1786,44699001.6240585
2,1, 7,21, 0, 3,40.00,50.00,SummerDesignDay
8,13.682651961920304
10,213328599.56452985
1749,0.0
1786,42470390.56203629
2,1, 7,21, 0, 3,50.00,60.00,SummerDesignDay
8,13.659136670643687
10,213328599.56452985
1749,0.0
1786,40241728.68730603
2,1, 7,21, 0, 3, 0.00,60.00,SummerDesignDay
875,20.461928446761449
915,22.600966936260816
955,23.999999999999944
995,23.224116844686379
1035,23.376644299645038
1075,22.5491309896716
1115,24.000000000000015
1155,24.0
1195,24.00000000000001
1235,23.871899621830108
1275,22.436691936198306
1315,24.00000000000001
1355,21.447710842461118
1395,21.333168414231058
1435,24.00000000000003
1475,22.546307366684585
1515,23.899248207955855
1555,24.254163655558263
1595,24.36595801648131
1635,23.67712533386586
2,1, 7,21, 0, 4, 0.00,10.00,SummerDesignDay
8,13.63560137410855
10,213328599.56452985
1749,0.0
1786,38013040.3437901
2,1, 7,21, 0, 4,10.00,20.00,SummerDesignDay
8,13.612040802606578
10,213328599.56452985
1749,0.0
1786,35783203.580174658
2,1, 7,21, 0, 4,20.00,30.00,SummerDesignDay
8,13.58846620506876
10,213328599.56452985
1749,0.0
1786,33554188.187935573
2,1, 7,21, 0, 4,30.00,40.00,SummerDesignDay
8,13.56487178447336
10,213328599.56452985
1749,0.0
1786,31328329.614408859
2,1, 7,21, 0, 4,40.00,50.00,SummerDesignDay
8,13.541257354069103
10,213328599.56452985
1749,0.0
1786,29107566.126055506
2,1, 7,21, 0, 4,50.00,60.00,SummerDesignDay
8,13.517617463812285
10,213328599.56452985
1749,0.0
1786,27451690.704410677
2,1, 7,21, 0, 4, 0.00,60.00,SummerDesignDay
875,19.658535457742315
915,21.821392530586907
955,23.9972920528847
995,22.942781483386957
1035,23.092787003568419
1075,21.811612828265884
1115,24.00000000000001
1155,24.000000000000019
1195,24.000000000000058
1235,23.712857933759044
1275,22.08489574402122
1315,24.00000000000001
1355,21.192936942920487
1395,21.079075720936119
1435,24.00000000000006
1475,22.290742911673548
1515,23.736519066006144
1555,23.919705679906618
1595,24.17897986366798
1635,23.504375985407675
2,1, 7,21, 0, 5, 0.00,10.00,SummerDesignDay
8,13.50185415824011
10,213328599.56452985
1749,0.0
1786,26153769.30383262
2,1, 7,21, 0, 5,10.00,20.00,SummerDesignDay
8,13.486076034032447
10,213328599.56452985
1749,0.0
1786,25479903.42462504
2,1, 7,21, 0, 5,20.00,30.00,SummerDesignDay
8,13.470289340350983
10,213328599.56452985
1749,0.0
1786,24839232.327679308
2,1, 7,21, 0, 5,30.00,40.00,SummerDesignDay
8,13.454493322631063
10,213328599.56452985
1749,0.0
1786,24364992.57103947
2,1, 7,21, 0, 5,40.00,50.00,SummerDesignDay
8,13.438688835118548
10,213328599.56452985
1749,0.0
1786,23995003.82251563
2,1, 7,21, 0, 5,50.00,60.00,SummerDesignDay
8,13.422888173889437
10,213328599.56452985
1749,0.0
1786,23659176.568254137
2,1, 7,21, 0, 5, 0.00,60.00,SummerDesignDay
875,19.365366928531924
915,21.712130902347299
955,23.91685387898234
995,22.746183357333455
1035,22.855584817788484
1075,21.612870136282507
1115,24.0
1155,24.000000000000044
1195,23.999999999999959
1235,23.576185175804239
1275,21.84011055881655
1315,24.000000000000044
1355,20.97268410758707
1395,20.863185474172334
1435,24.000000000000055
1475,22.15819966095151
1515,23.657904588409236
1555,23.738145174654894
1595,24.009092293121168
1635,23.351604376551305
2,1, 7,21, 0, 6, 0.00,10.00,SummerDesignDay
8,13.438688835118548
10,213328599.56452985
1749,0.0
1786,24677159.355483377
2,1, 7,21, 0, 6,10.00,20.00,SummerDesignDay
8,13.454493322631063
10,213328599.56452985
1749,0.0
1786,25704794.257760288
2,1, 7,21, 0, 6,20.00,30.00,SummerDesignDay
8,13.470289340350983
10,213328599.56452985
1749,0.0
1786,26744221.23778694
2,1, 7,21, 0, 6,30.00,40.00,SummerDesignDay
8,13.486076034032447
10,213328599.56452985
1749,0.0
1786,28504513.420787369
2,1, 7,21, 0, 6,40.00,50.00,SummerDesignDay
8,13.50185415824011
10,213328599.56452985
1749,0.0
1786,30393287.624125638
2,1, 7,21, 0, 6,50.00,60.00,SummerDesignDay
8,13.517617463812285
10,213328599.56452985
1749,0.0
1786,31973143.076279649
2,1, 7,21, 0, 6, 0.00,60.00,SummerDesignDay
875,19.418428571681095
915,22.63413186246763
955,23.965342635494296
995,22.691144419285327
1035,22.7457076457828
1075,21.88958372552113
1115,24.000000000000019
1155,24.0
1195,24.00000000000003
1235,23.529520767990794
1275,21.897168620483524
1315,24.000000000000055
1355,20.86561521798541
1395,20.762497364181195
1435,24.000000000000044
1475,22.392789684813424
1515,23.690377178290857
1555,23.63900485158977
1595,23.895391664577148
1635,23.25526106731904
2,1, 7,21, 0, 7, 0.00,10.00,SummerDesignDay
8,13.572736920571789
10,213328599.56452985
1749,0.0
1786,36117591.28319918
2,1, 7,21, 0, 7,10.00,20.00,SummerDesignDay
8,13.627748229152554
10,213328599.56452985
1749,0.0
1786,40268657.78716917
2,1, 7,21, 0, 7,20.00,30.00,SummerDesignDay
8,13.682651961920304
10,213328599.56452985
1749,0.0
1786,44371040.710682477
2,1, 7,21, 0, 7,30.00,40.00,SummerDesignDay
8,13.737448093244995
10,213328599.56452985
1749,0.0
1786,48358159.67242707
2,1, 7,21, 0, 7,40.00,50.00,SummerDesignDay
8,13.792137011831216
10,213328599.56452985
1749,0.0
1786,52431162.283689018
2,1, 7,21, 0, 7,50.00,60.00,SummerDesignDay
8,13.846719282840333
10,213328599.56452985
1749,0.0
1786,56596600.94287853
2,1, 7,21, 0, 7, 0.00,60.00,SummerDesignDay
875,19.937458340650286
915,23.935881220117538
955,23.99999521680193
995,22.693138882347698
1035,22.860304247145306
1075,22.224937362938719
1115,23.99999999999999
1155,24.00000000000003
1195,24.000000000000019
1235,23.666008393981259
1275,22.407431542605413
1315,24.000000000000026
1355,20.98767856477858
1395,20.89363086698125
1435,24.000000000000044
1475,22.89898797100321
1515,23.67944825186105
1555,23.65960088228343
1595,23.899149895989884
1635,23.269156884908275
2,1, 7,21, 0, 8, 0.00,10.00,SummerDesignDay
8,13.978831900527043
10,216619197.17912353
1749,0.0
1786,65323831.71412579
2,1, 7,21, 0, 8,10.00,20.00,SummerDesignDay
8,14.110321014287419
10,216619197.17912353
1749,0.0
1786,74539201.72297491
2,1, 7,21, 0, 8,20.00,30.00,SummerDesignDay
8,14.241191509616986
10,216619197.17912353
1749,0.0
1786,85594231.10358869
2,1, 7,21, 0, 8,30.00,40.00,SummerDesignDay
8,14.371447531304272
10,216619197.17912353
1749,0.0
1786,99145632.32009238
2,1, 7,21, 0, 8,40.00,50.00,SummerDesignDay
8,14.501093766564925
10,216619197.17912353
1749,0.0
1786,121192918.20176928
2,1, 7,21, 0, 8,50.00,60.00,SummerDesignDay
8,14.630134792273804
10,216619197.17912353
1749,0.0
1786,142606739.4422534
2,1, 7,21, 0, 8, 0.00,60.00,SummerDesignDay
875,21.19655298709515
915,25.551005299460269
955,23.999999999902259
995,23.016040542384663
1035,23.333221320010514
1075,23.169799132396418
1115,23.999999999999976
1155,24.00000000000001
1195,24.000000000000033
1235,23.957118477038596
1275,23.55175619633093
1315,24.000000000000019
1355,21.48119061183935
1395,21.400136366110464
1435,24.000000000000005
1475,23.727474194982578
1515,23.953447297938273
1555,23.864343561750773
1595,23.99385856613794
1635,23.457271927997565
2,1, 7,21, 0, 9, 0.00,10.00,SummerDesignDay
8,14.773641492809972
10,284641756.0630954
1749,5653439.362481635
1786,243803757.14217264
2,1, 7,21, 0, 9,10.00,20.00,SummerDesignDay
8,14.91640948124148
10,284641756.0630954
1749,0.0
1786,246108026.61211879
2,1, 7,21, 0, 9,20.00,30.00,SummerDesignDay
8,15.05843890714102
10,284641756.0630954
1749,0.0
1786,288107850.90173706
2,1, 7,21, 0, 9,30.00,40.00,SummerDesignDay
8,15.199735893563798
10,284641756.0630954
1749,0.0
1786,316478818.5133316
2,1, 7,21, 0, 9,40.00,50.00,SummerDesignDay
8,15.340306256439395
10,284641756.0630954
1749,0.0
1786,345772353.55188509
2,1, 7,21, 0, 9,50.00,60.00,SummerDesignDay
8,15.48015101768072
10,284641756.0630954
1749,0.0
1786,380357072.69276419
2,1, 7,21, 0, 9, 0.00,60.00,SummerDesignDay
875,23.15326481265222
915,23.970854053624664
955,24.000000000000033
995,23.92428439821369
1035,23.99059582009198
1075,23.993391933842934
1115,24.000000000000005
1155,24.00000000000001
1195,24.000000000000026
1235,23.99999999969275
1275,23.9999976700697
1315,24.000000000000005
1355,22.86061639634569
1395,23.008933055737459
1435,24.00000000000003
1475,23.999999057100536
1515,23.999999999980138
1555,23.999941866236669
1595,23.999999999999987
1635,23.915054080189579
2,1, 7,21, 0,10, 0.00,10.00,SummerDesignDay
8,15.60467292907716
10,369432300.3959289
1749,0.0
1786,457307891.9693177
2,1, 7,21, 0,10,10.00,20.00,SummerDesignDay
8,15.72862731650033
10,369432300.3959289
1749,0.0
1786,501049406.4958307
2,1, 7,21, 0,10,20.00,30.00,SummerDesignDay
8,15.852017409284228
10,369432300.3959289
1749,0.0
1786,540444172.8624433
2,1, 7,21, 0,10,30.00,40.00,SummerDesignDay
8,15.974848118364367
10,369432300.3959289
1749,0.0
1786,568130781.5290074
2,1, 7,21, 0,10,40.00,50.00,SummerDesignDay
8,16.097123145563505
10,369432300.3959289
1749,0.0
1786,599668507.7299744
2,1, 7,21, 0,10,50.00,60.00,SummerDesignDay
8,16.218846351168599
10,369432300.3959289
1749,0.0
1786,629182129.2363857
2,1, 7,21, 0,10, 0.00,60.00,SummerDesignDay
875,23.99953835675387
915,23.999999999927188
955,24.000000000000033
995,23.999999999842044
1035,23.99999999997097
1075,23.99999999999963
1115,24.0
1155,24.00000000000004
1195,24.000000000000015
1235,23.999999999999987
1275,23.99999999999955
1315,24.00000000000001
1355,23.94382906515437
1395,23.983026421374395
1435,24.000000000000033
1475,23.99999999999976
1515,24.000000000000005
1555,24.000000000000019
1595,24.000000000000015
1635,23.99999999994898
2,1, 7,21, 0,11, 0.00,10.00,SummerDesignDay
8,16.325793027093189
10,380547207.89222827
1749,0.0
1786,670558119.5696024
2,1, 7,21, 0,11,10.00,20.00,SummerDesignDay
8,16.432322158488288
10,380547207.89222827
1749,0.0
1786,696098649.7886868
2,1, 7,21, 0,11,20.00,30.00,SummerDesignDay
8,16.538424180249178
10,380547207.89222827
1749,0.0
1786,720428307.3396412
2,1, 7,21, 0,11,30.00,40.00,SummerDesignDay
8,16.644108396469087
10,380547207.89222827
1749,0.0
1786,743988513.8725017
2,1, 7,21, 0,11,40.00,50.00,SummerDesignDay
8,16.749376736593655
10,380547207.89222827
1749,0.0
1786,767088031.3232002
2,1, 7,21, 0,11,50.00,60.00,SummerDesignDay
8,16.854232613237156
10,380547207.89222827
1749,0.0
1786,790003025.1742023
2,1, 7,21, 0,11, 0.00,60.00,SummerDesignDay
875,23.9999999840711
915,24.00000000000003
955,24.000000000000055
995,24.000000000000069
1035,24.000000000000033
1075,24.000000000000026
1115,24.00000000000004
1155,24.000000000000026
1195,24.000000000000005
1235,24.0
1275,24.000000000000005
1315,24.000000000000019
1355,23.99999967523355
1395,23.999999970103916
1435,24.000000000000047
1475,24.000000000000019
1515,24.000000000000015
1555,24.000000000000019
1595,24.000000000000026
1635,24.0
2,1, 7,21, 0,12, 0.00,10.00,SummerDesignDay
8,16.92390823520069
10,391662115.3885275
1749,0.0
1786,822410222.6300268
2,1, 7,21, 0,12,10.00,20.00,SummerDesignDay
8,16.99340178950456
10,391662115.3885275
1749,0.0
1786,840205357.4873977
2,1, 7,21, 0,12,20.00,30.00,SummerDesignDay
8,17.06272006743463
10,391662115.3885275
1749,0.0
1786,857059814.6134532
2,1, 7,21, 0,12,30.00,40.00,SummerDesignDay
8,17.131853229172639
10,391662115.3885275
1749,0.0
1786,873752724.159188
2,1, 7,21, 0,12,40.00,50.00,SummerDesignDay
8,17.200807172194087
10,391662115.3885275
1749,0.0
1786,889805867.3441285
2,1, 7,21, 0,12,50.00,60.00,SummerDesignDay
8,17.269582116758607
10,391662115.3885275
1749,0.0
1786,905504570.1038159
2,1, 7,21, 0,12, 0.00,60.00,SummerDesignDay
875,23.999999999998335
915,24.000000000000005
955,24.00000000000007
995,24.000000000000019
1035,24.000000000000058
1075,24.000000000000019
1115,23.999999999999998
1155,24.000000000000055
1195,24.000000000000015
1235,24.00000000000003
1275,24.000000000000019
1315,24.0
1355,23.99999999999719
1395,23.999999999999717
1435,24.00000000000006
1475,24.00000000000001
1515,23.99999999999999
1555,24.000000000000019
1595,24.000000000000019
1635,24.000000000000005
2,1, 7,21, 0,13, 0.00,10.00,SummerDesignDay
8,17.32447360221357
10,391662115.3885275
1749,0.0
1786,935016041.7408351
2,1, 7,21, 0,13,10.00,20.00,SummerDesignDay
8,17.379251291230806
10,391662115.3885275
1749,0.0
1786,949208068.8457998
2,1, 7,21, 0,13,20.00,30.00,SummerDesignDay
8,17.433921312061729
10,391662115.3885275
1749,0.0
1786,962701669.3921919
2,1, 7,21, 0,13,30.00,40.00,SummerDesignDay
8,17.488473222557489
10,391662115.3885275
1749,0.0
1786,975819881.9009177
2,1, 7,21, 0,13,40.00,50.00,SummerDesignDay
8,17.542913447755134
10,391662115.3885275
1749,0.0
1786,988311651.3586186
2,1, 7,21, 0,13,50.00,60.00,SummerDesignDay
8,17.59724609886134
10,391662115.3885275
1749,0.0
1786,1000221807.5516243
2,1, 7,21, 0,13, 0.00,60.00,SummerDesignDay
875,24.000000000000026
915,24.00000000000009
955,24.00000000000003
995,24.000000000000015
1035,23.999999999999984
1075,24.000000000000026
1115,24.00000000000001
1155,24.000000000000005
1195,24.000000000000019
1235,24.00000000000001
1275,24.000000000000033
1315,24.0
1355,24.0
1395,23.99999999999999
1435,24.00000000000006
1475,24.000000000000033
1515,23.99999999999999
1555,24.0
1595,23.999999999999976
1635,24.00000000000001
2,1, 7,21, 0,14, 0.00,10.00,SummerDesignDay
8,17.6311450462694
10,391662115.3885275
1749,0.0
1786,1004304261.4155341
2,1, 7,21, 0,14,10.00,20.00,SummerDesignDay
8,17.665000449016245
10,391662115.3885275
1749,0.0
1786,1011442037.3230324
2,1, 7,21, 0,14,20.00,30.00,SummerDesignDay
8,17.698812743128934
10,391662115.3885275
1749,0.0
1786,1018578647.7853123
2,1, 7,21, 0,14,30.00,40.00,SummerDesignDay
8,17.732582050940107
10,391662115.3885275
1749,0.0
1786,1025754309.9210284
2,1, 7,21, 0,14,40.00,50.00,SummerDesignDay
8,17.766307345121004
10,391662115.3885275
1749,0.0
1786,1033032788.8049729
2,1, 7,21, 0,14,50.00,60.00,SummerDesignDay
8,17.79999023167558
10,391662115.3885275
1749,0.0
1786,1040383740.0518922
2,1, 7,21, 0,14, 0.00,60.00,SummerDesignDay
875,24.00000000000009
915,24.00000000000011
955,24.00000000000004
995,24.00000000000003
1035,23.99999999999996
1075,24.00000000000007
1115,23.99999999999999
1155,24.000000000000047
1195,24.000000000000047
1235,24.000000000000026
1275,24.00000000000014
1315,24.000000000000026
1355,24.000000000000019
1395,23.99999999999999
1435,24.000000000000033
1475,24.000000000000033
1515,24.000000000000015
1555,24.00000000000004
1595,24.000000000000019
1635,24.00000000000001
2,1, 7,21, 0,15, 0.00,10.00,SummerDesignDay
8,17.79999023167558
10,391662115.3885275
1749,0.0
1786,1030769268.2433589
2,1, 7,21, 0,15,10.00,20.00,SummerDesignDay
8,17.79999023167558
10,391662115.3885275
1749,0.0
1786,1030754199.4968392
2,1, 7,21, 0,15,20.00,30.00,SummerDesignDay
8,17.79999023167558
10,391662115.3885275
1749,0.0
1786,1030926388.6742843
2,1, 7,21, 0,15,30.00,40.00,SummerDesignDay
8,17.79999023167558
10,391662115.3885275
1749,0.0
1786,1031094125.5461398
2,1, 7,21, 0,15,40.00,50.00,SummerDesignDay
8,17.79999023167558
10,391662115.3885275
1749,0.0
1786,1031264369.6145686
2,1, 7,21, 0,15,50.00,60.00,SummerDesignDay
8,17.79999023167558
10,391662115.3885275
1749,0.0
1786,1031275969.6997681
2,1, 7,21, 0,15, 0.00,60.00,SummerDesignDay
875,24.00000000000009
915,24.00000000000003
955,24.00000000000003
995,24.000000000000019
1035,24.000000000000019
1075,24.000000000000026
1115,24.00000000000003
1155,24.00000000000004
1195,24.00000000000004
1235,24.00000000000001
1275,23.999999999999959
1315,24.0
1355,23.99999999999999
1395,24.000000000000026
1435,24.000000000000058
1475,24.00000000000004
1515,24.000000000000015
1555,23.999999999999984
1595,24.000000000000005
1635,24.000000000000019
2,1, 7,21, 0,16, 0.00,10.00,SummerDesignDay
8,17.759562446305357
10,391662115.3885275
1749,0.0
1786,1012826229.5950884
2,1, 7,21, 0,16,10.00,20.00,SummerDesignDay
8,17.71907809634183
10,391662115.3885275
1749,0.0
1786,1003842469.527717
2,1, 7,21, 0,16,20.00,30.00,SummerDesignDay
8,17.67853788661001
10,391662115.3885275
1749,0.0
1786,994700246.758107
2,1, 7,21, 0,16,30.00,40.00,SummerDesignDay
8,17.63791796367351
10,391662115.3885275
1749,0.0
1786,985336431.6141903
2,1, 7,21, 0,16,40.00,50.00,SummerDesignDay
8,17.59724609886134
10,391662115.3885275
1749,0.0
1786,975889574.3778313
2,1, 7,21, 0,16,50.00,60.00,SummerDesignDay
8,17.55650676726033
10,391662115.3885275
1749,0.0
1786,966299327.5048044
2,1, 7,21, 0,16, 0.00,60.00,SummerDesignDay
875,24.00000000000004
915,24.000000000000076
955,24.00000000000001
995,24.000000000000087
1035,24.000000000000026
1075,24.000000000000005
1115,24.00000000000001
1155,24.000000000000047
1195,24.000000000000019
1235,24.00000000000001
1275,24.000000000000129
1315,24.0
1355,23.999999999999984
1395,23.99999999999999
1435,24.000000000000026
1475,24.0
1515,24.000000000000015
1555,24.00000000000003
1595,24.00000000000003
1635,24.000000000000015
2,1, 7,21, 0,17, 0.00,10.00,SummerDesignDay
8,17.50209486331892
10,388152144.5996276
1749,0.0
1786,953929948.4803648
2,1, 7,21, 0,17,10.00,20.00,SummerDesignDay
8,17.447570789624618
10,388152144.5996276
1749,0.0
1786,941451421.9908823
2,1, 7,21, 0,17,20.00,30.00,SummerDesignDay
8,17.392929544208135
10,388152144.5996276
1749,0.0
1786,928866931.6970869
2,1, 7,21, 0,17,30.00,40.00,SummerDesignDay
8,17.33818013976614
10,388152144.5996276
1749,0.0
1786,916125102.6325144
2,1, 7,21, 0,17,40.00,50.00,SummerDesignDay
8,17.283317298559309
10,388152144.5996276
1749,0.0
1786,903216854.0382705
2,1, 7,21, 0,17,50.00,60.00,SummerDesignDay
8,17.22833552437677
10,388152144.5996276
1749,0.0
1786,890134136.4876554
2,1, 7,21, 0,17, 0.00,60.00,SummerDesignDay
875,23.999999999999934
915,24.000000000000026
955,24.00000000000003
995,24.000000000000033
1035,24.000000000000076
1075,24.000000000000033
1115,24.000000000000026
1155,24.000000000000019
1195,24.000000000000019
1235,23.99999999999999
1275,24.000000000000076
1315,24.000000000000026
1355,23.999999999999998
1395,23.99999999999999
1435,24.000000000000005
1475,24.000000000000047
1515,24.0
1555,24.000000000000033
1595,24.00000000000003
1635,24.000000000000019
2,1, 7,21, 0,18, 0.00,10.00,SummerDesignDay
8,17.159453019160176
10,383325934.7648903
1749,0.0
1786,874238506.5104667
2,1, 7,21, 0,18,10.00,20.00,SummerDesignDay
8,17.090391773337136
10,383325934.7648903
1749,0.0
1786,858340510.915223
2,1, 7,21, 0,18,20.00,30.00,SummerDesignDay
8,17.021151077964786
10,383325934.7648903
1749,0.0
1786,842203687.9547737
2,1, 7,21, 0,18,30.00,40.00,SummerDesignDay
8,16.951729380464653
10,383325934.7648903
1749,0.0
1786,826141540.7021722
2,1, 7,21, 0,18,40.00,50.00,SummerDesignDay
8,16.882126503829249
10,383325934.7648903
1749,0.0
1786,810059176.435601
2,1, 7,21, 0,18,50.00,60.00,SummerDesignDay
8,16.812341807494034
10,383325934.7648903
1749,0.0
1786,793918487.562815
2,1, 7,21, 0,18, 0.00,60.00,SummerDesignDay
875,23.999999999999984
915,23.99999999999999
955,24.000000000000058
995,24.000000000000087
1035,24.000000000000033
1075,24.000000000000047
1115,23.99999999999999
1155,24.000000000000033
1195,23.999999999999998
1235,23.99999999999999
1275,23.99999999999996
1315,24.0
1355,24.00000000000003
1395,24.000000000000019
1435,24.0
1475,23.99999999999997
1515,24.000000000000015
1555,24.0
1595,24.000000000000005
1635,24.0
2,1, 7,21, 0,19, 0.00,10.00,SummerDesignDay
8,16.707321072823203
10,379377217.62737789
1749,0.0
1786,776613436.652723
2,1, 7,21, 0,19,10.00,20.00,SummerDesignDay
8,16.601881826644556
10,379377217.62737789
1749,0.0
1786,753541563.227365
2,1, 7,21, 0,19,20.00,30.00,SummerDesignDay
8,16.496030555252849
10,379377217.62737789
1749,0.0
1786,729464890.6234399
2,1, 7,21, 0,19,30.00,40.00,SummerDesignDay
8,16.389760181474104
10,379377217.62737789
1749,0.0
1786,704761031.777392
2,1, 7,21, 0,19,40.00,50.00,SummerDesignDay
8,16.283067654262039
10,379377217.62737789
1749,0.0
1786,679498674.6815193
2,1, 7,21, 0,19,50.00,60.00,SummerDesignDay
8,16.17595057957811
10,379377217.62737789
1749,0.0
1786,653544944.8303686
2,1, 7,21, 0,19, 0.00,60.00,SummerDesignDay
875,23.999999999999984
915,24.000000000000026
955,24.000000000000005
995,24.000000000000047
1035,24.0
1075,24.000000000000047
1115,24.000000000000033
1155,24.00000000000001
1195,24.000000000000019
1235,24.000000000000015
1275,23.999999999999984
1315,24.000000000000047
1355,24.000000000000015
1395,24.000000000000019
1435,24.000000000000044
1475,24.00000000000004
1515,24.00000000000004
1555,24.0
1595,24.000000000000005
1635,24.000000000000005
2,1, 7,21, 0,20, 0.00,10.00,SummerDesignDay
8,16.097123145563505
10,342218776.8788298
1749,0.0
1786,622333343.3951931
2,1, 7,21, 0,20,10.00,20.00,SummerDesignDay
8,16.018070242471564
10,342218776.8788298
1749,0.0
1786,601583305.581586
2,1, 7,21, 0,20,20.00,30.00,SummerDesignDay
8,15.938779752340516
10,342218776.8788298
1749,0.0
1786,581241637.7100756
2,1, 7,21, 0,20,30.00,40.00,SummerDesignDay
8,15.85926152575189
10,342218776.8788298
1749,0.0
1786,560693559.9025604
2,1, 7,21, 0,20,40.00,50.00,SummerDesignDay
8,15.779503718563929
10,342218776.8788298
1749,0.0
1786,539829827.4482503
2,1, 7,21, 0,20,50.00,60.00,SummerDesignDay
8,15.699515709672767
10,342218776.8788298
1749,0.0
1786,518511478.308351
2,1, 7,21, 0,20, 0.00,60.00,SummerDesignDay
875,24.000000000000026
915,23.999999999999955
955,24.0
995,24.00000000000003
1035,24.000000000000044
1075,24.0
1115,24.00000000000001
1155,24.000000000000015
1195,24.000000000000033
1235,24.0
1275,24.000000000000055
1315,24.000000000000026
1355,24.0
1395,24.000000000000015
1435,24.000000000000044
1475,24.000000000000044
1515,24.00000000000003
1555,24.000000000000019
1595,24.000000000000015
1635,24.000000000000015
2,1, 7,21, 0,21, 0.00,10.00,SummerDesignDay
8,15.63389147320404
10,329540132.39690539
1749,0.0
1786,493088873.09180876
2,1, 7,21, 0,21,10.00,20.00,SummerDesignDay
8,15.56810827419793
10,329540132.39690539
1749,0.0
1786,473580276.70940056
2,1, 7,21, 0,21,20.00,30.00,SummerDesignDay
8,15.502170882753524
10,329540132.39690539
1749,0.0
1786,454186072.87391486
2,1, 7,21, 0,21,30.00,40.00,SummerDesignDay
8,15.436068032613852
10,329540132.39690539
1749,0.0
1786,434805654.4183692