Program Version,EnergyPlus, Version 8.9.0-eba93e8e1b, YMD=2019.04.04 17:58
1,5,Environment Title[],Latitude[deg],Longitude[deg],Time Zone[],Elevation[m]
2,8,Day of Simulation[],Month[],Day of Month[],DST Indicator[1=yes 0=no],Hour[],StartMinute[],EndMinute[],DayType
3,5,Cumulative Day of Simulation[],Month[],Day of Month[],DST Indicator[1=yes 0=no],DayType  ! When Daily Report Variables Requested
4,2,Cumulative Days of Simulation[],Month[]  ! When Monthly Report Variables Requested
5,1,Cumulative Days of Simulation[] ! When Run Period Report Variables Requested
6,1,Calendar Year of Simulation[] ! When Annual Report Variables Requested
7,9,Environment,Site Outdoor Air Drybulb Temperature [C] !Monthly [Value,Min,Day,Hour,Minute,Max,Day,Hour,Minute]
8,1,Environment,Site Outdoor Air Wetbulb Temperature [C] !TimeStep
357,1,SPORTS ARENA - COURT C4-SPACE FUNCTION ZN,Zone Air Temperature [C] !Hourly
358,7,SPORTS ARENA - COURT C4-SPACE FUNCTION ZN,Zone Air Relative Humidity [%] !Daily [Value,Min,Hour,Minute,Max,Hour,Minute]
397,1,SPORTS ARENA - RING-SPACE FUNCTION ZN,Zone Air Temperature [C] !Hourly
398,7,SPORTS ARENA - RING-SPACE FUNCTION ZN,Zone Air Relative Humidity [%] !Daily [Value,Min,Hour,Minute,Max,Hour,Minute]
437,1,STORAGE AREA - OCCSENS-SPACE FUNCTION ZN,Zone Air Temperature [C] !Hourly
438,7,STORAGE AREA - OCCSENS-SPACE FUNCTION ZN,Zone Air Relative Humidity [%] !Daily [Value,Min,Hour,Minute,Max,Hour,Minute]
477,1,STORAGE AREA - REFRIGERATED-SPACE FUNCTION ZN,Zone Air Temperature [C] !Hourly
478,7,STORAGE AREA - REFRIGERATED-SPACE FUNCTION ZN,Zone Air Relative Humidity [%] !Daily [Value,Min,Hour,Minute,Max,Hour,Minute]
517,1,STORAGE AREA-SPACE FUNCTION ZN,Zone Air Temperature [C] !Hourly
518,7,STORAGE AREA-SPACE FUNCTION ZN,Zone Air Relative Humidity [%] !Daily [Value,Min,Hour,Minute,Max,Hour,Minute]
10,1,Electricity:Facility [J] !TimeStep
668,1,DistrictCooling:Facility [J] !TimeStep
631,1,DistrictHeating:Facility [J] !TimeStep
End of Data Dictionary
1,FORT MCMURRAY AP ANN CLG .4% CONDNS DB=>MWB,  56.65,-111.22,  -7.00, 369.10
2,1, 7,21, 0, 1, 0.00,10.00,SummerDesignDay
8,14.218136923962174
10,44511379.54029811
631,0.0
668,22765069.289138304
2,1, 7,21, 0, 1,10.00,20.00,SummerDesignDay
8,14.171982153293495
10,44511379.54029811
631,0.0
668,22377935.244660848
2,1, 7,21, 0, 1,20.00,30.00,SummerDesignDay
8,14.125744780286427
10,44511379.54029811
631,0.0
668,22052426.745263537
2,1, 7,21, 0, 1,30.00,40.00,SummerDesignDay
8,14.079436086331978
10,44511379.54029811
631,0.0
668,21725970.011132268
2,1, 7,21, 0, 1,40.00,50.00,SummerDesignDay
8,14.033050387896898
10,44511379.54029811
631,0.0
668,21413275.768759375
2,1, 7,21, 0, 1,50.00,60.00,SummerDesignDay
8,13.986581233564835
10,44511379.54029811
631,0.0
668,21110454.936049917
2,1, 7,21, 0, 1, 0.00,60.00,SummerDesignDay
357,23.771436238231347
397,24.000000000000033
437,22.0195072628222
477,22.36598192580101
517,22.36598192580098
2,1, 7,21, 0, 2, 0.00,10.00,SummerDesignDay
8,13.95555882260429
10,25296539.46186797
631,0.0
668,0.0
2,1, 7,21, 0, 2,10.00,20.00,SummerDesignDay
8,13.924507755336454
10,25296539.46186797
631,0.0
668,0.0
2,1, 7,21, 0, 2,20.00,30.00,SummerDesignDay
8,13.893416042989206
10,25296539.46186797
631,0.0
668,0.0
2,1, 7,21, 0, 2,30.00,40.00,SummerDesignDay
8,13.862289589689029
10,25296539.46186797
631,0.0
668,0.0
2,1, 7,21, 0, 2,40.00,50.00,SummerDesignDay
8,13.831134407608739
10,25296539.46186797
631,821776.7135019504
668,0.0
2,1, 7,21, 0, 2,50.00,60.00,SummerDesignDay
8,13.799938415548118
10,25296539.46186797
631,3632164.1449345794
668,0.0
2,1, 7,21, 0, 2, 0.00,60.00,SummerDesignDay
357,22.456852412342739
397,24.134069623596106
437,21.750787682034173
477,22.09464460674111
517,22.09464460674108
2,1, 7,21, 0, 3, 0.00,10.00,SummerDesignDay
8,13.776521671948676
10,6081699.383437824
631,0.0
668,0.0
2,1, 7,21, 0, 3,10.00,20.00,SummerDesignDay
8,13.753085235778466
10,6081699.383437824
631,0.0
668,0.0
2,1, 7,21, 0, 3,20.00,30.00,SummerDesignDay
8,13.729636002354969
10,6081699.383437824
631,0.0
668,0.0
2,1, 7,21, 0, 3,30.00,40.00,SummerDesignDay
8,13.706147375533054
10,6081699.383437824
631,0.0
668,0.0
2,1, 7,21, 0, 3,40.00,50.00,SummerDesignDay
8,13.682651961920304
10,6081699.383437824
631,0.0
668,0.0
2,1, 7,21, 0, 3,50.00,60.00,SummerDesignDay
8,13.659136670643687
10,6081699.383437824
631,0.0
668,0.0
2,1, 7,21, 0, 3, 0.00,60.00,SummerDesignDay
357,20.932115367672
397,22.251882237480275
437,21.482181664979675
477,21.783750559418676
517,21.783750559418633
2,1, 7,21, 0, 4, 0.00,10.00,SummerDesignDay
8,13.63560137410855
10,6081699.383437824
631,0.0
668,0.0
2,1, 7,21, 0, 4,10.00,20.00,SummerDesignDay
8,13.612040802606578
10,6081699.383437824
631,0.0
668,0.0
2,1, 7,21, 0, 4,20.00,30.00,SummerDesignDay
8,13.58846620506876
10,6081699.383437824
631,0.0
668,0.0
2,1, 7,21, 0, 4,30.00,40.00,SummerDesignDay
8,13.56487178447336
10,6081699.383437824
631,0.0
668,0.0
2,1, 7,21, 0, 4,40.00,50.00,SummerDesignDay
8,13.541257354069103
10,6081699.383437824
631,0.0
668,0.0
2,1, 7,21, 0, 4,50.00,60.00,SummerDesignDay
8,13.517617463812285
10,6081699.383437824
631,0.0
668,0.0
2,1, 7,21, 0, 4, 0.00,60.00,SummerDesignDay
357,19.843212117772578
397,20.589658124308717
437,21.18639804237836
477,21.388769869176334
517,21.3887698691763
2,1, 7,21, 0, 5, 0.00,10.00,SummerDesignDay
8,13.50185415824011
10,6081699.383437824
631,0.0
668,0.0
2,1, 7,21, 0, 5,10.00,20.00,SummerDesignDay
8,13.486076034032447
10,6081699.383437824
631,0.0
668,0.0
2,1, 7,21, 0, 5,20.00,30.00,SummerDesignDay
8,13.470289340350983
10,6081699.383437824
631,0.0
668,0.0
2,1, 7,21, 0, 5,30.00,40.00,SummerDesignDay
8,13.454493322631063
10,6081699.383437824
631,0.0
668,0.0
2,1, 7,21, 0, 5,40.00,50.00,SummerDesignDay
8,13.438688835118548
10,6081699.383437824
631,0.0
668,0.0
2,1, 7,21, 0, 5,50.00,60.00,SummerDesignDay
8,13.422888173889437
10,6081699.383437824
631,0.0
668,0.0
2,1, 7,21, 0, 5, 0.00,60.00,SummerDesignDay
357,19.224182144244293
397,19.786620697736308
437,20.86107912018635
477,20.95408861133222
517,20.954088611332208
2,1, 7,21, 0, 6, 0.00,10.00,SummerDesignDay
8,13.438688835118548
10,6081699.383437824
631,0.0
668,0.0
2,1, 7,21, 0, 6,10.00,20.00,SummerDesignDay
8,13.454493322631063
10,6081699.383437824
631,0.0
668,0.0
2,1, 7,21, 0, 6,20.00,30.00,SummerDesignDay
8,13.470289340350983
10,6081699.383437824
631,0.0
668,0.0
2,1, 7,21, 0, 6,30.00,40.00,SummerDesignDay
8,13.486076034032447
10,6081699.383437824
631,0.0
668,0.0
2,1, 7,21, 0, 6,40.00,50.00,SummerDesignDay
8,13.50185415824011
10,6081699.383437824
631,0.0
668,0.0
2,1, 7,21, 0, 6,50.00,60.00,SummerDesignDay
8,13.517617463812285
10,6081699.383437824
631,0.0
668,0.0
2,1, 7,21, 0, 6, 0.00,60.00,SummerDesignDay
357,18.97587118640721
397,19.50126394821229
437,20.642283520906444
477,20.674182502733627
517,20.67418250273359
2,1, 7,21, 0, 7, 0.00,10.00,SummerDesignDay
8,13.572736920571789
10,6081699.383437824
631,0.0
668,0.0
2,1, 7,21, 0, 7,10.00,20.00,SummerDesignDay
8,13.627748229152554
10,6081699.383437824
631,0.0
668,0.0
2,1, 7,21, 0, 7,20.00,30.00,SummerDesignDay
8,13.682651961920304
10,6081699.383437824
631,0.0
668,0.0
2,1, 7,21, 0, 7,30.00,40.00,SummerDesignDay
8,13.737448093244995
10,6081699.383437824
631,0.0
668,0.0
2,1, 7,21, 0, 7,40.00,50.00,SummerDesignDay
8,13.792137011831216
10,6081699.383437824
631,0.0
668,0.0
2,1, 7,21, 0, 7,50.00,60.00,SummerDesignDay
8,13.846719282840333
10,6081699.383437824
631,0.0
668,0.0
2,1, 7,21, 0, 7, 0.00,60.00,SummerDesignDay
357,19.070133942296786
397,19.589529168863974
437,20.57128178626417
477,20.575067448567248
517,20.575067448567219
2,1, 7,21, 0, 8, 0.00,10.00,SummerDesignDay
8,13.978831900527043
10,6081699.383437824
631,0.0
668,0.0
2,1, 7,21, 0, 8,10.00,20.00,SummerDesignDay
8,14.110321014287419
10,6081699.383437824
631,0.0
668,0.0
2,1, 7,21, 0, 8,20.00,30.00,SummerDesignDay
8,14.241191509616986
10,6081699.383437824
631,0.0
668,0.0
2,1, 7,21, 0, 8,30.00,40.00,SummerDesignDay
8,14.371447531304272
10,6081699.383437824
631,0.0
668,0.0
2,1, 7,21, 0, 8,40.00,50.00,SummerDesignDay
8,14.501093766564925
10,6081699.383437824
631,0.0
668,0.0
2,1, 7,21, 0, 8,50.00,60.00,SummerDesignDay
8,14.630134792273804
10,6081699.383437824
631,0.0
668,0.0
2,1, 7,21, 0, 8, 0.00,60.00,SummerDesignDay
357,19.651390813302745
397,20.173782356860575
437,20.71518553748469
477,20.711552667365614
517,20.711552667365578
2,1, 7,21, 0, 9, 0.00,10.00,SummerDesignDay
8,14.773641492809972
10,15027624.930249859
631,52377400.2960736
668,0.0
2,1, 7,21, 0, 9,10.00,20.00,SummerDesignDay
8,14.91640948124148
10,15027624.930249859
631,0.0
668,0.0
2,1, 7,21, 0, 9,20.00,30.00,SummerDesignDay
8,15.05843890714102
10,15027624.930249859
631,0.0
668,0.0
2,1, 7,21, 0, 9,30.00,40.00,SummerDesignDay
8,15.199735893563798
10,15027624.930249859
631,0.0
668,0.0
2,1, 7,21, 0, 9,40.00,50.00,SummerDesignDay
8,15.340306256439395
10,15027624.930249859
631,0.0
668,0.0
2,1, 7,21, 0, 9,50.00,60.00,SummerDesignDay
8,15.48015101768072
10,15027624.930249859
631,0.0
668,0.0
2,1, 7,21, 0, 9, 0.00,60.00,SummerDesignDay
357,20.62366956829265
397,21.150397261466684
437,22.375652770267825
477,22.399467237727948
517,22.399467237727877
2,1, 7,21, 0,10, 0.00,10.00,SummerDesignDay
8,15.60467292907716
10,41910401.19166174
631,16468976.182384363
668,0.0
2,1, 7,21, 0,10,10.00,20.00,SummerDesignDay
8,15.72862731650033
10,41910401.19166174
631,0.0
668,0.0
2,1, 7,21, 0,10,20.00,30.00,SummerDesignDay
8,15.852017409284228
10,41910401.19166174
631,0.0
668,1112685.5281323642
2,1, 7,21, 0,10,30.00,40.00,SummerDesignDay
8,15.974848118364367
10,41910401.19166174
631,0.0
668,9207762.32222193
2,1, 7,21, 0,10,40.00,50.00,SummerDesignDay
8,16.097123145563505
10,41910401.19166174
631,0.0
668,15569755.619867605
2,1, 7,21, 0,10,50.00,60.00,SummerDesignDay
8,16.218846351168599
10,41910401.19166174
631,0.0
668,25341259.495787879
2,1, 7,21, 0,10, 0.00,60.00,SummerDesignDay
357,23.083809131568484
397,23.510908220009808
437,23.19843807687452
477,23.27813532064646
517,23.278135320646414
2,1, 7,21, 0,11, 0.00,10.00,SummerDesignDay
8,16.325793027093189
10,56629778.68619798
631,0.0
668,58902667.144501108
2,1, 7,21, 0,11,10.00,20.00,SummerDesignDay
8,16.432322158488288
10,56629778.68619798
631,0.0
668,57412908.823446389
2,1, 7,21, 0,11,20.00,30.00,SummerDesignDay
8,16.538424180249178
10,56629778.68619798
631,0.0
668,61920583.61812485
2,1, 7,21, 0,11,30.00,40.00,SummerDesignDay
8,16.644108396469087
10,56629778.68619798
631,0.0
668,66183444.132938887
2,1, 7,21, 0,11,40.00,50.00,SummerDesignDay
8,16.749376736593655
10,56629778.68619798
631,0.0
668,69448553.91350317
2,1, 7,21, 0,11,50.00,60.00,SummerDesignDay
8,16.854232613237156
10,56629778.68619798
631,0.0
668,72551135.18939516
2,1, 7,21, 0,11, 0.00,60.00,SummerDesignDay
357,23.999877317261647
397,23.999999846227494
437,23.999820111971716
477,23.999995971497499
517,23.999995971497499
2,1, 7,21, 0,12, 0.00,10.00,SummerDesignDay
8,16.92390823520069
10,66237198.725413057
631,0.0
668,92381285.66659622
2,1, 7,21, 0,12,10.00,20.00,SummerDesignDay
8,16.99340178950456
10,66237198.725413057
631,0.0
668,95736184.99354089
2,1, 7,21, 0,12,20.00,30.00,SummerDesignDay
8,17.06272006743463
10,66237198.725413057
631,0.0
668,97668885.08747016
2,1, 7,21, 0,12,30.00,40.00,SummerDesignDay
8,17.131853229172639
10,66237198.725413057
631,0.0
668,99678898.89794749
2,1, 7,21, 0,12,40.00,50.00,SummerDesignDay
8,17.200807172194087
10,66237198.725413057
631,0.0
668,101468463.52801831
2,1, 7,21, 0,12,50.00,60.00,SummerDesignDay
8,17.269582116758607
10,66237198.725413057
631,0.0
668,103145610.15711592
2,1, 7,21, 0,12, 0.00,60.00,SummerDesignDay
357,23.999999999855363
397,23.99999999999987
437,23.999999999999959
477,24.000000000000005
517,24.000000000000015
2,1, 7,21, 0,13, 0.00,10.00,SummerDesignDay
8,17.32447360221357
10,66237198.725413057
631,0.0
668,118471007.77491792
2,1, 7,21, 0,13,10.00,20.00,SummerDesignDay
8,17.379251291230806
10,66237198.725413057
631,0.0
668,120676336.33722328
2,1, 7,21, 0,13,20.00,30.00,SummerDesignDay
8,17.433921312061729
10,66237198.725413057
631,0.0
668,122308576.52541283
2,1, 7,21, 0,13,30.00,40.00,SummerDesignDay
8,17.488473222557489
10,66237198.725413057
631,0.0
668,123911042.74994697
2,1, 7,21, 0,13,40.00,50.00,SummerDesignDay
8,17.542913447755134
10,66237198.725413057
631,0.0
668,125342321.51951795
2,1, 7,21, 0,13,50.00,60.00,SummerDesignDay
8,17.59724609886134
10,66237198.725413057
631,0.0
668,126631125.2009342
2,1, 7,21, 0,13, 0.00,60.00,SummerDesignDay
357,24.000000000000015
397,24.0
437,24.00000000000001
477,24.000000000000005
517,24.000000000000019
2,1, 7,21, 0,14, 0.00,10.00,SummerDesignDay
8,17.6311450462694
10,66237198.725413057
631,0.0
668,123853094.69721286
2,1, 7,21, 0,14,10.00,20.00,SummerDesignDay
8,17.665000449016245
10,66237198.725413057
631,0.0
668,124371476.43939454
2,1, 7,21, 0,14,20.00,30.00,SummerDesignDay
8,17.698812743128934
10,66237198.725413057
631,0.0
668,125005993.29852148
2,1, 7,21, 0,14,30.00,40.00,SummerDesignDay
8,17.732582050940107
10,66237198.725413057
631,0.0
668,125617869.92902962
2,1, 7,21, 0,14,40.00,50.00,SummerDesignDay
8,17.766307345121004
10,66237198.725413057
631,0.0
668,126233751.138012
2,1, 7,21, 0,14,50.00,60.00,SummerDesignDay
8,17.79999023167558
10,66237198.725413057
631,0.0
668,126859031.53337984
2,1, 7,21, 0,14, 0.00,60.00,SummerDesignDay
357,24.00000000000001
397,24.000000000000026
437,24.000000000000015
477,24.00000000000001
517,24.000000000000005
2,1, 7,21, 0,15, 0.00,10.00,SummerDesignDay
8,17.79999023167558
10,66237198.725413057
631,0.0
668,115093638.66477169
2,1, 7,21, 0,15,10.00,20.00,SummerDesignDay
8,17.79999023167558
10,66237198.725413057
631,0.0
668,114460503.32125068
2,1, 7,21, 0,15,20.00,30.00,SummerDesignDay
8,17.79999023167558
10,66237198.725413057
631,0.0
668,114270613.78483221
2,1, 7,21, 0,15,30.00,40.00,SummerDesignDay
8,17.79999023167558
10,66237198.725413057
631,0.0
668,114044825.20765494
2,1, 7,21, 0,15,40.00,50.00,SummerDesignDay
8,17.79999023167558
10,66237198.725413057
631,0.0
668,113874237.32178068
2,1, 7,21, 0,15,50.00,60.00,SummerDesignDay
8,17.79999023167558
10,66237198.725413057
631,0.0
668,113748096.83363417
2,1, 7,21, 0,15, 0.00,60.00,SummerDesignDay
357,24.0
397,24.000000000000015
437,24.000000000000005
477,24.000000000000005
517,24.00000000000001
2,1, 7,21, 0,16, 0.00,10.00,SummerDesignDay
8,17.759562446305357
10,66237198.725413057
631,0.0
668,103171324.04104436
2,1, 7,21, 0,16,10.00,20.00,SummerDesignDay
8,17.71907809634183
10,66237198.725413057
631,0.0
668,101879603.23579079
2,1, 7,21, 0,16,20.00,30.00,SummerDesignDay
8,17.67853788661001
10,66237198.725413057
631,0.0
668,100960531.07150162
2,1, 7,21, 0,16,30.00,40.00,SummerDesignDay
8,17.63791796367351
10,66237198.725413057
631,0.0
668,100013233.25597036
2,1, 7,21, 0,16,40.00,50.00,SummerDesignDay
8,17.59724609886134
10,66237198.725413057
631,0.0
668,99122402.20904204
2,1, 7,21, 0,16,50.00,60.00,SummerDesignDay
8,17.55650676726033
10,66237198.725413057
631,0.0
668,98259958.53775503
2,1, 7,21, 0,16, 0.00,60.00,SummerDesignDay
357,24.000000000000015
397,24.00000000000003
437,24.000000000000015
477,24.0
517,24.00000000000001
2,1, 7,21, 0,17, 0.00,10.00,SummerDesignDay
8,17.50209486331892
10,66237198.725413057
631,0.0
668,96967155.57435869
2,1, 7,21, 0,17,10.00,20.00,SummerDesignDay
8,17.447570789624618
10,66237198.725413057
631,0.0
668,95876385.32028225
2,1, 7,21, 0,17,20.00,30.00,SummerDesignDay
8,17.392929544208135
10,66237198.725413057
631,0.0
668,94807785.74758283
2,1, 7,21, 0,17,30.00,40.00,SummerDesignDay
8,17.33818013976614
10,66237198.725413057
631,0.0
668,93753736.02144927
2,1, 7,21, 0,17,40.00,50.00,SummerDesignDay
8,17.283317298559309
10,66237198.725413057
631,0.0
668,92709915.51058975
2,1, 7,21, 0,17,50.00,60.00,SummerDesignDay
8,17.22833552437677
10,66237198.725413057
631,0.0
668,91673575.64800616
2,1, 7,21, 0,17, 0.00,60.00,SummerDesignDay
357,24.000000000000015
397,24.000000000000026
437,24.000000000000005
477,23.999999999999998
517,24.00000000000001
2,1, 7,21, 0,18, 0.00,10.00,SummerDesignDay
8,17.159453019160176
10,66237198.725413057
631,0.0
668,93711835.538503
2,1, 7,21, 0,18,10.00,20.00,SummerDesignDay
8,17.090391773337136
10,66237198.725413057
631,0.0
668,92638376.70308335
2,1, 7,21, 0,18,20.00,30.00,SummerDesignDay
8,17.021151077964786
10,66237198.725413057
631,0.0
668,91415411.89756878
2,1, 7,21, 0,18,30.00,40.00,SummerDesignDay
8,16.951729380464653
10,66237198.725413057
631,0.0
668,90209899.43661683
2,1, 7,21, 0,18,40.00,50.00,SummerDesignDay
8,16.882126503829249
10,66237198.725413057
631,0.0
668,88993918.83655799
2,1, 7,21, 0,18,50.00,60.00,SummerDesignDay
8,16.812341807494034
10,66237198.725413057
631,0.0
668,87765758.66614273
2,1, 7,21, 0,18, 0.00,60.00,SummerDesignDay
357,24.00000000000001
397,24.000000000000058
437,24.0
477,24.00000000000001
517,24.000000000000005
2,1, 7,21, 0,19, 0.00,10.00,SummerDesignDay
8,16.707321072823203
10,53457305.08711013
631,0.0
668,86105597.9538823
2,1, 7,21, 0,19,10.00,20.00,SummerDesignDay
8,16.601881826644556
10,53457305.08711013
631,0.0
668,83916773.69281234
2,1, 7,21, 0,19,20.00,30.00,SummerDesignDay
8,16.496030555252849
10,53457305.08711013
631,0.0
668,81845211.17924778
2,1, 7,21, 0,19,30.00,40.00,SummerDesignDay
8,16.389760181474104
10,53457305.08711013
631,0.0
668,79781313.87339935
2,1, 7,21, 0,19,40.00,50.00,SummerDesignDay
8,16.283067654262039
10,53457305.08711013
631,0.0
668,77684004.40123792
2,1, 7,21, 0,19,50.00,60.00,SummerDesignDay
8,16.17595057957811
10,53457305.08711013
631,0.0
668,75576740.3163158
2,1, 7,21, 0,19, 0.00,60.00,SummerDesignDay
357,23.99999999999999
397,24.0
437,24.0
477,24.000000000000005
517,24.0
2,1, 7,21, 0,20, 0.00,10.00,SummerDesignDay
8,16.097123145563505
10,44511379.54029811
631,0.0
668,76550582.15683581
2,1, 7,21, 0,20,10.00,20.00,SummerDesignDay
8,16.018070242471564
10,44511379.54029811
631,0.0
668,76091685.9423625
2,1, 7,21, 0,20,20.00,30.00,SummerDesignDay
8,15.938779752340516
10,44511379.54029811
631,0.0
668,75263825.66904173
2,1, 7,21, 0,20,30.00,40.00,SummerDesignDay
8,15.85926152575189
10,44511379.54029811
631,0.0
668,74437474.85490597
2,1, 7,21, 0,20,40.00,50.00,SummerDesignDay
8,15.779503718563929
10,44511379.54029811
631,0.0
668,73511299.31179247
2,1, 7,21, 0,20,50.00,60.00,SummerDesignDay
8,15.699515709672767
10,44511379.54029811
631,0.0
668,72519496.60325913
2,1, 7,21, 0,20, 0.00,60.00,SummerDesignDay
357,24.000000000000019
397,24.00000000000006
437,23.85635004201765
477,23.955167641115648
517,23.95516764111567
2,1, 7,21, 0,21, 0.00,10.00,SummerDesignDay
8,15.63389147320404
10,44511379.54029811
631,0.0
668,71678888.05922604
2,1, 7,21, 0,21,10.00,20.00,SummerDesignDay
8,15.56810827419793
10,44511379.54029811
631,0.0
668,70813025.05807776
2,1, 7,21, 0,21,20.00,30.00,SummerDesignDay
8,15.502170882753524
10,44511379.54029811
631,0.0
668,69931850.23560283
2,1, 7,21, 0,21,30.00,40.00,SummerDesignDay
8,15.436068032613852
10,44511379.54029811
631,0.0
668,69040444.92483533
2,1, 7,21, 0,21,40.00,50.00,SummerDesignDay
8,15.369804371206009
10,44511379.54029811
631,0.0
668,68141862.61084463
2,1, 7,21, 0,21,50.00,60.00,SummerDesignDay
8,15.303384603594449
10,44511379.54029811
631,0.0
668,67238203.35812453
2,1, 7,21, 0,21, 0.00,60.00,SummerDesignDay
357,24.000000000000005
397,24.000000000000026
437,23.467425968215854
477,23.6874062515957
517,23.68740625159569
2,1, 7,21, 0,22, 0.00,10.00,SummerDesignDay
8,15.236797685071274
10,44511379.54029811
631,0.0
668,66330389.97981635
2,1, 7,21, 0,22,10.00,20.00,SummerDesignDay
8,15.170047891787942
10,44511379.54029811
631,0.0
668,65420335.63028054
2,1, 7,21, 0,22,20.00,30.00,SummerDesignDay
8,15.103134826860483
10,44511379.54029811
631,0.0
668,64509443.124221969
2,1, 7,21, 0,22,30.00,40.00,SummerDesignDay
8,15.036063385178485
10,44511379.54029811
631,0.0
668,63567638.217758927
2,1, 7,21, 0,22,40.00,50.00,SummerDesignDay
8,14.968821767219835
10,44511379.54029811
631,0.0
668,62430156.4305061
2,1, 7,21, 0,22,50.00,60.00,SummerDesignDay
8,14.90141525878635
10,44511379.54029811
631,0.0
668,61291094.14193705
2,1, 7,21, 0,22, 0.00,60.00,SummerDesignDay
357,24.000000000000047
397,24.000000000000044
437,23.04950014658138
477,23.327180204478908
517,23.327180204478898
2,1, 7,21, 0,23, 0.00,10.00,SummerDesignDay
8,14.848873673278373
10,44511379.54029811
631,0.0
668,47074195.47935298
2,1, 7,21, 0,23,10.00,20.00,SummerDesignDay
8,14.796237168136719
10,44511379.54029811
631,0.0
668,45522265.35584909
2,1, 7,21, 0,23,20.00,30.00,SummerDesignDay
8,14.743494321455645
10,44511379.54029811
631,0.0
668,44408303.23488363
2,1, 7,21, 0,23,30.00,40.00,SummerDesignDay
8,14.690649975253665
10,44511379.54029811
631,0.0
668,43274890.34082873
2,1, 7,21, 0,23,40.00,50.00,SummerDesignDay
8,14.637704281233117
10,44511379.54029811
631,0.0
668,42216408.81613133
2,1, 7,21, 0,23,50.00,60.00,SummerDesignDay
8,14.584656914839757
10,44511379.54029811
631,0.0
668,41206987.19892047
2,1, 7,21, 0,23, 0.00,60.00,SummerDesignDay
357,23.99999999999999
397,24.000000000000076
437,22.658779012997088
477,22.97432247995904
517,22.974322479959019
2,1, 7,21, 0,24, 0.00,10.00,SummerDesignDay
8,14.531507212058875
10,44511379.54029811
631,0.0
668,31569687.16613703
2,1, 7,21, 0,24,10.00,20.00,SummerDesignDay
8,14.47825496413355
10,44511379.54029811
631,0.0
668,30213760.22857817
2,1, 7,21, 0,24,20.00,30.00,SummerDesignDay
8,14.4249000133173
10,44511379.54029811
631,0.0
668,29165845.634036945
2,1, 7,21, 0,24,30.00,40.00,SummerDesignDay
8,14.371447531304272
10,44511379.54029811
631,0.0
668,28110218.43053852
2,1, 7,21, 0,24,40.00,50.00,SummerDesignDay
8,14.31788619902223
10,44511379.54029811
631,0.0
668,27101080.796068863
2,1, 7,21, 0,24,50.00,60.00,SummerDesignDay
8,14.264220970176066
10,44511379.54029811
631,0.0
668,26123279.323744358
2,1, 7,21, 0,24, 0.00,60.00,SummerDesignDay
357,24.00000000000001
397,24.00000000000007
437,22.3237776191738
477,22.65793860673246
517,22.657938606732473
3,1, 7,21, 0,SummerDesignDay
358,51.34045159003463,42.70710462311222,17,60,61.543348761757879, 6,60
398,48.21174090084725,42.08822564063415,17,60,59.564963176771, 6,60
438,47.72987831511606,42.10985823054982,19,40,55.57948671441271, 7,30
478,47.224905818701369,41.641903904625078,19,60,55.55122858619907, 7,40
518,47.22490581855285,41.641901519055817,19,60,55.55122858619911, 7,40
4,1, 7
7,22.2505,16.5,21, 5,60,28.9,21,14,60
1,FORT MCMURRAY AP ANN HTG 99.6% CONDNS DB,  56.65,-111.22,  -7.00, 369.10
2,1, 1,21, 0, 1, 0.00,10.00,WinterDesignDay
8,-36.2
10,44511379.54029811
631,296659580.9777035
668,0.0
2,1, 1,21, 0, 1,10.00,20.00,WinterDesignDay
8,-36.2
10,44511379.54029811
631,296866776.44270148
668,0.0
2,1, 1,21, 0, 1,20.00,30.00,WinterDesignDay
8,-36.2
10,44511379.54029811
631,296892682.62345179
668,0.0
2,1, 1,21, 0, 1,30.00,40.00,WinterDesignDay
8,-36.2
10,44511379.54029811
631,296940348.1579044
668,0.0
2,1, 1,21, 0, 1,40.00,50.00,WinterDesignDay
8,-36.2
10,44511379.54029811
631,296985559.6377552
668,0.0
2,1, 1,21, 0, 1,50.00,60.00,WinterDesignDay
8,-36.2
10,44511379.54029811
631,297024017.175148
668,0.0
2,1, 1,21, 0, 1, 0.00,60.00,WinterDesignDay
357,22.000000000000015
397,22.000000000000019
437,18.000000000000005
477,18.000000000000005
517,18.00000000000001
2,1, 1,21, 0, 2, 0.00,10.00,WinterDesignDay
8,-36.2
10,25296539.46186797
631,317735601.7779684
668,0.0
2,1, 1,21, 0, 2,10.00,20.00,WinterDesignDay
8,-36.2
10,25296539.46186797
631,319075472.10659089
668,0.0
2,1, 1,21, 0, 2,20.00,30.00,WinterDesignDay
8,-36.2
10,25296539.46186797
631,319468277.0781095
668,0.0
2,1, 1,21, 0, 2,30.00,40.00,WinterDesignDay
8,-36.2
10,25296539.46186797
631,319887285.3218259
668,0.0
2,1, 1,21, 0, 2,40.00,50.00,WinterDesignDay
8,-36.2
10,25296539.46186797
631,320181781.14750286
668,0.0
2,1, 1,21, 0, 2,50.00,60.00,WinterDesignDay
8,-36.2
10,25296539.46186797
631,320425108.6006538
668,0.0
2,1, 1,21, 0, 2, 0.00,60.00,WinterDesignDay
357,22.000000000000005
397,22.00000000000001
437,18.000000000000005
477,18.000000000000008
517,18.000000000000008
2,1, 1,21, 0, 3, 0.00,10.00,WinterDesignDay
8,-36.2
10,6081699.383437824
631,226630524.0952802
668,0.0
2,1, 1,21, 0, 3,10.00,20.00,WinterDesignDay
8,-36.2
10,6081699.383437824
631,280065503.2128569
668,0.0
2,1, 1,21, 0, 3,20.00,30.00,WinterDesignDay
8,-36.2
10,6081699.383437824
631,297994092.2867586
668,0.0
2,1, 1,21, 0, 3,30.00,40.00,WinterDesignDay
8,-36.2
10,6081699.383437824
631,304620686.8415728
668,0.0
2,1, 1,21, 0, 3,40.00,50.00,WinterDesignDay
8,-36.2
10,6081699.383437824
631,309769677.1769284
668,0.0
2,1, 1,21, 0, 3,50.00,60.00,WinterDesignDay
8,-36.2
10,6081699.383437824
631,310913500.1832191
668,0.0
2,1, 1,21, 0, 3, 0.00,60.00,WinterDesignDay
357,18.100837005281645
397,18.10531269277134
437,18.000000000000005
477,18.000000000000005
517,18.000000000000008
2,1, 1,21, 0, 4, 0.00,10.00,WinterDesignDay
8,-36.2
10,6081699.383437824
631,311760747.94874367
668,0.0
2,1, 1,21, 0, 4,10.00,20.00,WinterDesignDay
8,-36.2
10,6081699.383437824
631,312400707.524985
668,0.0
2,1, 1,21, 0, 4,20.00,30.00,WinterDesignDay
8,-36.2
10,6081699.383437824
631,312902394.73080149
668,0.0
2,1, 1,21, 0, 4,30.00,40.00,WinterDesignDay
8,-36.2
10,6081699.383437824
631,313284601.4270278
668,0.0
2,1, 1,21, 0, 4,40.00,50.00,WinterDesignDay
8,-36.2
10,6081699.383437824
631,313577254.35782459
668,0.0
2,1, 1,21, 0, 4,50.00,60.00,WinterDesignDay
8,-36.2
10,6081699.383437824
631,313817269.029404
668,0.0
2,1, 1,21, 0, 4, 0.00,60.00,WinterDesignDay
357,18.00000000005583
397,18.000000000049984
437,18.000000000000005
477,18.000000000000005
517,18.000000000000005
2,1, 1,21, 0, 5, 0.00,10.00,WinterDesignDay
8,-36.2
10,6081699.383437824
631,313998736.2543477
668,0.0
2,1, 1,21, 0, 5,10.00,20.00,WinterDesignDay
8,-36.2
10,6081699.383437824
631,314148777.843787
668,0.0
2,1, 1,21, 0, 5,20.00,30.00,WinterDesignDay
8,-36.2
10,6081699.383437824
631,314260784.61975857
668,0.0
2,1, 1,21, 0, 5,30.00,40.00,WinterDesignDay
8,-36.2
10,6081699.383437824
631,314355457.62596616
668,0.0
2,1, 1,21, 0, 5,40.00,50.00,WinterDesignDay
8,-36.2
10,6081699.383437824
631,314436485.7281055
668,0.0
2,1, 1,21, 0, 5,50.00,60.00,WinterDesignDay
8,-36.2
10,6081699.383437824
631,314492336.2571988
668,0.0
2,1, 1,21, 0, 5, 0.00,60.00,WinterDesignDay
357,18.000000000000005
397,18.000000000000008
437,18.0
477,18.0
517,18.000000000000008
2,1, 1,21, 0, 6, 0.00,10.00,WinterDesignDay
8,-36.2
10,6081699.383437824
631,314540328.0935784
668,0.0
2,1, 1,21, 0, 6,10.00,20.00,WinterDesignDay
8,-36.2
10,6081699.383437824
631,314583879.8202763
668,0.0
2,1, 1,21, 0, 6,20.00,30.00,WinterDesignDay
8,-36.2
10,6081699.383437824
631,314621384.0843274
668,0.0
2,1, 1,21, 0, 6,30.00,40.00,WinterDesignDay
8,-36.2
10,6081699.383437824
631,314653096.5506176
668,0.0
2,1, 1,21, 0, 6,40.00,50.00,WinterDesignDay
8,-36.2
10,6081699.383437824
631,314679770.2630951
668,0.0
2,1, 1,21, 0, 6,50.00,60.00,WinterDesignDay
8,-36.2
10,6081699.383437824
631,314702208.35279127
668,0.0
2,1, 1,21, 0, 6, 0.00,60.00,WinterDesignDay
357,18.000000000000005
397,18.000000000000005
437,18.000000000000005
477,18.000000000000005
517,18.000000000000005
2,1, 1,21, 0, 7, 0.00,10.00,WinterDesignDay
8,-36.2
10,6081699.383437824
631,314721130.48201546
668,0.0
2,1, 1,21, 0, 7,10.00,20.00,WinterDesignDay
8,-36.2
10,6081699.383437824
631,314737145.08153858
668,0.0
2,1, 1,21, 0, 7,20.00,30.00,WinterDesignDay
8,-36.2
10,6081699.383437824
631,314746855.5048647
668,0.0
2,1, 1,21, 0, 7,30.00,40.00,WinterDesignDay
8,-36.2
10,6081699.383437824
631,314754885.838027
668,0.0
2,1, 1,21, 0, 7,40.00,50.00,WinterDesignDay
8,-36.2
10,6081699.383437824
631,314763016.20091506
668,0.0
2,1, 1,21, 0, 7,50.00,60.00,WinterDesignDay
8,-36.2
10,6081699.383437824
631,314770748.89387729
668,0.0
2,1, 1,21, 0, 7, 0.00,60.00,WinterDesignDay
357,18.000000000000005
397,18.000000000000005
437,18.000000000000005
477,18.000000000000005
517,18.000000000000005
2,1, 1,21, 0, 8, 0.00,10.00,WinterDesignDay
8,-36.2
10,6081699.383437824
631,390941384.4614365
668,0.0
2,1, 1,21, 0, 8,10.00,20.00,WinterDesignDay
8,-36.2
10,6081699.383437824
631,252128084.4691967
668,0.0
2,1, 1,21, 0, 8,20.00,30.00,WinterDesignDay
8,-36.2
10,6081699.383437824
631,349961155.4490193
668,0.0
2,1, 1,21, 0, 8,30.00,40.00,WinterDesignDay
8,-36.2
10,6081699.383437824
631,322785122.4110926
668,0.0
2,1, 1,21, 0, 8,40.00,50.00,WinterDesignDay
8,-36.2
10,6081699.383437824
631,324165731.1659216
668,0.0
2,1, 1,21, 0, 8,50.00,60.00,WinterDesignDay
8,-36.2
10,6081699.383437824
631,323799015.7633788
668,0.0
2,1, 1,21, 0, 8, 0.00,60.00,WinterDesignDay
357,18.0
397,18.0
437,20.037395862254404
477,20.037400755058856
517,20.037400755058873
2,1, 1,21, 0, 9, 0.00,10.00,WinterDesignDay
8,-36.2
10,15027624.930249859
631,454848159.6937156
668,0.0
2,1, 1,21, 0, 9,10.00,20.00,WinterDesignDay
8,-36.2
10,15027624.930249859
631,228696487.49749086
668,0.0
2,1, 1,21, 0, 9,20.00,30.00,WinterDesignDay
8,-36.2
10,15027624.930249859
631,379931743.3452332
668,0.0
2,1, 1,21, 0, 9,30.00,40.00,WinterDesignDay
8,-36.2
10,15027624.930249859
631,340044895.4457187
668,0.0
2,1, 1,21, 0, 9,40.00,50.00,WinterDesignDay
8,-36.2
10,15027624.930249859
631,340570650.8861943
668,0.0
2,1, 1,21, 0, 9,50.00,60.00,WinterDesignDay
8,-36.2
10,15027624.930249859
631,339719843.333784
668,0.0
2,1, 1,21, 0, 9, 0.00,60.00,WinterDesignDay
357,19.997232494462368
397,19.997470258177619
437,22.036207573706034
477,22.03636889167596
517,22.03636889167596
2,1, 1,21, 0,10, 0.00,10.00,WinterDesignDay
8,-36.2
10,41910401.19166174
631,376214463.4046385
668,0.0
2,1, 1,21, 0,10,10.00,20.00,WinterDesignDay
8,-36.2
10,41910401.19166174
631,288161214.5897062
668,0.0
2,1, 1,21, 0,10,20.00,30.00,WinterDesignDay
8,-36.2
10,41910401.19166174
631,341436696.38923749
668,0.0
2,1, 1,21, 0,10,30.00,40.00,WinterDesignDay
8,-36.2
10,41910401.19166174
631,328363763.42196068
668,0.0
2,1, 1,21, 0,10,40.00,50.00,WinterDesignDay
8,-36.2
10,41910401.19166174
631,327280834.9072913
668,0.0
2,1, 1,21, 0,10,50.00,60.00,WinterDesignDay
8,-36.2
10,41910401.19166174
631,326504687.8014654
668,0.0
2,1, 1,21, 0,10, 0.00,60.00,WinterDesignDay
357,21.996527457689468
397,21.996670503246365