Program Version,EnergyPlus, Version 8.9.0-eba93e8e1b, YMD=2019.04.04 18:00
1,5,Environment Title[],Latitude[deg],Longitude[deg],Time Zone[],Elevation[m]
2,8,Day of Simulation[],Month[],Day of Month[],DST Indicator[1=yes 0=no],Hour[],StartMinute[],EndMinute[],DayType
3,5,Cumulative Day of Simulation[],Month[],Day of Month[],DST Indicator[1=yes 0=no],DayType  ! When Daily Report Variables Requested
4,2,Cumulative Days of Simulation[],Month[]  ! When Monthly Report Variables Requested
5,1,Cumulative Days of Simulation[] ! When Run Period Report Variables Requested
6,1,Calendar Year of Simulation[] ! When Annual Report Variables Requested
7,9,Environment,Site Outdoor Air Drybulb Temperature [C] !Monthly [Value,Min,Day,Hour,Minute,Max,Day,Hour,Minute]
8,1,Environment,Site Outdoor Air Wetbulb Temperature [C] !TimeStep
555,1,SP-LOBBY - ELEVATOR-SPACE FUNCTION SYS-3 FLR-1 SCH-C HPLCMT-CORE ZN,Zone Air Temperature [C] !Hourly
556,7,SP-LOBBY - ELEVATOR-SPACE FUNCTION SYS-3 FLR-1 SCH-C HPLCMT-CORE ZN,Zone Air Relative Humidity [%] !Daily [Value,Min,Hour,Minute,Max,Hour,Minute]
595,1,SP-LOBBY - HOTEL-SPACE FUNCTION SYS-3 FLR-1 SCH-H HPLCMT-SOUTH ZN,Zone Air Temperature [C] !Hourly
596,7,SP-LOBBY - HOTEL-SPACE FUNCTION SYS-3 FLR-1 SCH-H HPLCMT-SOUTH ZN,Zone Air Relative Humidity [%] !Daily [Value,Min,Hour,Minute,Max,Hour,Minute]
635,1,SP-LOBBY - MOTION PICTURE THEATRE-SPACE FUNCTION SYS-3 FLR-1 SCH-C HPLCMT-EAST ZN,Zone Air Temperature [C] !Hourly
636,7,SP-LOBBY - MOTION PICTURE THEATRE-SPACE FUNCTION SYS-3 FLR-1 SCH-C HPLCMT-EAST ZN,Zone Air Relative Humidity [%] !Daily [Value,Min,Hour,Minute,Max,Hour,Minute]
675,1,SP-LOBBY - PERFORMING ARTS THEATRE-SPACE FUNCTION SYS-3 FLR-1 SCH-C HPLCMT-NORTH ZN,Zone Air Temperature [C] !Hourly
676,7,SP-LOBBY - PERFORMING ARTS THEATRE-SPACE FUNCTION SYS-3 FLR-1 SCH-C HPLCMT-NORTH ZN,Zone Air Relative Humidity [%] !Daily [Value,Min,Hour,Minute,Max,Hour,Minute]
715,1,SP-LOBBY - SPACE DESIGNED TO ANSI/IES RP-28 (USED PRIMARILY BY RESIDENTS)-SPACE FUNCTION SYS-3 FLR-1 SCH-B HPLCMT-WEST ZN,Zone Air Temperature [C] !Hourly
716,7,SP-LOBBY - SPACE DESIGNED TO ANSI/IES RP-28 (USED PRIMARILY BY RESIDENTS)-SPACE FUNCTION SYS-3 FLR-1 SCH-B HPLCMT-WEST ZN,Zone Air Relative Humidity [%] !Daily [Value,Min,Hour,Minute,Max,Hour,Minute]
10,1,Electricity:Facility [J] !TimeStep
321,1,Gas:Facility [J] !TimeStep
End of Data Dictionary
1,FORT MCMURRAY AP ANN CLG .4% CONDNS DB=>MWB,  56.65,-111.22,  -7.00, 369.10
2,1, 7,21, 0, 1, 0.00,10.00,SummerDesignDay
8,14.218136923962174
10,92371381.19099857
321,10210374.542970708
2,1, 7,21, 0, 1,10.00,20.00,SummerDesignDay
8,14.171982153293495
10,92285154.90467648
321,10107240.840931232
2,1, 7,21, 0, 1,20.00,30.00,SummerDesignDay
8,14.125744780286427
10,92197834.41293954
321,10101572.700726547
2,1, 7,21, 0, 1,30.00,40.00,SummerDesignDay
8,14.079436086331978
10,92109153.69674509
321,10086231.102898123
2,1, 7,21, 0, 1,40.00,50.00,SummerDesignDay
8,14.033050387896898
10,92019226.63474922
321,10077411.649978087
2,1, 7,21, 0, 1,50.00,60.00,SummerDesignDay
8,13.986581233564835
10,91928237.18563399
321,10073433.12460076
2,1, 7,21, 0, 1, 0.00,60.00,SummerDesignDay
555,22.234743928498856
595,23.997384231856374
635,22.099525429532567
675,22.25708212684239
715,23.85813687442391
2,1, 7,21, 0, 2, 0.00,10.00,SummerDesignDay
8,13.95555882260429
10,81995644.39152839
321,6367430.341681499
2,1, 7,21, 0, 2,10.00,20.00,SummerDesignDay
8,13.924507755336454
10,81918138.789053
321,6338392.292539364
2,1, 7,21, 0, 2,20.00,30.00,SummerDesignDay
8,13.893416042989206
10,81843687.074221
321,6425997.823566651
2,1, 7,21, 0, 2,30.00,40.00,SummerDesignDay
8,13.862289589689029
10,81749620.50894323
321,7181843.449699779
2,1, 7,21, 0, 2,40.00,50.00,SummerDesignDay
8,13.831134407608739
10,81668899.05081332
321,7181707.4248999389
2,1, 7,21, 0, 2,50.00,60.00,SummerDesignDay
8,13.799938415548118
10,81584682.52318266
321,7181830.8613111
2,1, 7,21, 0, 2, 0.00,60.00,SummerDesignDay
555,21.66171431297863
595,23.997848994833619
635,21.51573780902171
675,21.676840131658194
715,22.814058004907169
2,1, 7,21, 0, 3, 0.00,10.00,SummerDesignDay
8,13.776521671948676
10,71649999.72920239
321,26323081.622458374
2,1, 7,21, 0, 3,10.00,20.00,SummerDesignDay
8,13.753085235778466
10,71576294.18908605
321,5714968.466577793
2,1, 7,21, 0, 3,20.00,30.00,SummerDesignDay
8,13.729636002354969
10,71488914.6555808
321,4065777.6029467496
2,1, 7,21, 0, 3,30.00,40.00,SummerDesignDay
8,13.706147375533054
10,71399452.02357528
321,2611186.8004412075
2,1, 7,21, 0, 3,40.00,50.00,SummerDesignDay
8,13.682651961920304
10,71294453.287241
321,5214723.081366841
2,1, 7,21, 0, 3,50.00,60.00,SummerDesignDay
8,13.659136670643687
10,71207957.13018412
321,5826539.061946252
2,1, 7,21, 0, 3, 0.00,60.00,SummerDesignDay
555,20.22233476989415
595,23.9981153050206
635,20.12916635561718
675,21.200377784931044
715,21.53501611215467
2,1, 7,21, 0, 4, 0.00,10.00,SummerDesignDay
8,13.63560137410855
10,71121026.48656082
321,5831453.857204224
2,1, 7,21, 0, 4,10.00,20.00,SummerDesignDay
8,13.612040802606578
10,71040841.55592941
321,5535982.09912527
2,1, 7,21, 0, 4,20.00,30.00,SummerDesignDay
8,13.58846620506876
10,70966716.05098328
321,2624538.4734762196
2,1, 7,21, 0, 4,30.00,40.00,SummerDesignDay
8,13.56487178447336
10,70898040.02015153
321,3944214.4997796069
2,1, 7,21, 0, 4,40.00,50.00,SummerDesignDay
8,13.541257354069103
10,70833857.81038511
321,5825157.164140195
2,1, 7,21, 0, 4,50.00,60.00,SummerDesignDay
8,13.517617463812285
10,70771154.3608017
321,5829456.6725328289
2,1, 7,21, 0, 4, 0.00,60.00,SummerDesignDay
555,19.62140523408336
595,23.997623537214037
635,19.569450652296923
675,20.790324554262687
715,21.091111320345904
2,1, 7,21, 0, 5, 0.00,10.00,SummerDesignDay
8,13.50185415824011
10,70725902.85881055
321,5834537.410059192
2,1, 7,21, 0, 5,10.00,20.00,SummerDesignDay
8,13.486076034032447
10,70682821.46806842
321,3626057.950690923
2,1, 7,21, 0, 5,20.00,30.00,SummerDesignDay
8,13.470289340350983
10,70641507.9432093
321,2644149.0414417928
2,1, 7,21, 0, 5,30.00,40.00,SummerDesignDay
8,13.454493322631063
10,70602968.74471101
321,5824331.905965099
2,1, 7,21, 0, 5,40.00,50.00,SummerDesignDay
8,13.438688835118548
10,70564485.47954062
321,5827489.386062632
2,1, 7,21, 0, 5,50.00,60.00,SummerDesignDay
8,13.422888173889437
10,70525542.20505826
321,5832509.672337042
2,1, 7,21, 0, 5, 0.00,60.00,SummerDesignDay
555,19.53662197807731
595,23.997613630127217
635,19.50139812443196
675,20.472318737013017
715,20.86073501353008
2,1, 7,21, 0, 6, 0.00,10.00,SummerDesignDay
8,13.438688835118548
10,70551477.06353285
321,4885805.077222405
2,1, 7,21, 0, 6,10.00,20.00,SummerDesignDay
8,13.454493322631063
10,70578476.32480178
321,2611710.033280786
2,1, 7,21, 0, 6,20.00,30.00,SummerDesignDay
8,13.470289340350983
10,70607130.21218692
321,4608188.929260959
2,1, 7,21, 0, 6,30.00,40.00,SummerDesignDay
8,13.486076034032447
10,70636799.82652962
321,5825807.661806994
2,1, 7,21, 0, 6,40.00,50.00,SummerDesignDay
8,13.50185415824011
10,70665424.30533707
321,5830496.126649128
2,1, 7,21, 0, 6,50.00,60.00,SummerDesignDay
8,13.517617463812285
10,70693783.77928743
321,5835595.0671085999
2,1, 7,21, 0, 6, 0.00,60.00,SummerDesignDay
555,19.507337824916289
595,23.99756190111003
635,19.47938822370033
675,20.317179486999604
715,20.718797051484214
2,1, 7,21, 0, 7, 0.00,10.00,SummerDesignDay
8,13.572736920571789
10,70800211.29686287
321,2946612.856411274
2,1, 7,21, 0, 7,10.00,20.00,SummerDesignDay
8,13.627748229152554
10,70906964.59742579
321,3330265.683296944
2,1, 7,21, 0, 7,20.00,30.00,SummerDesignDay
8,13.682651961920304
10,71013370.56630814
321,5824696.384452654
2,1, 7,21, 0, 7,30.00,40.00,SummerDesignDay
8,13.737448093244995
10,71117312.62834759
321,5828512.868180809
2,1, 7,21, 0, 7,40.00,50.00,SummerDesignDay
8,13.792137011831216
10,71219196.77023494
321,5833568.91118833
2,1, 7,21, 0, 7,50.00,60.00,SummerDesignDay
8,13.846719282840333
10,72091940.57291962
321,4232281.903730658
2,1, 7,21, 0, 7, 0.00,60.00,SummerDesignDay
555,19.500502330080296
595,23.997477478981897
635,19.475915616697546
675,20.295876269077874
715,20.69794225620277
2,1, 7,21, 0, 8, 0.00,10.00,SummerDesignDay
8,13.978831900527043
10,71555839.09921326
321,21488312.852869154
2,1, 7,21, 0, 8,10.00,20.00,SummerDesignDay
8,14.110321014287419
10,71794803.85656256
321,5130278.026212333
2,1, 7,21, 0, 8,20.00,30.00,SummerDesignDay
8,14.241191509616986
10,72525118.30294752
321,5827710.278637378
2,1, 7,21, 0, 8,30.00,40.00,SummerDesignDay
8,14.371447531304272
10,75250651.68554044
321,5831616.382812078
2,1, 7,21, 0, 8,40.00,50.00,SummerDesignDay
8,14.501093766564925
10,75755767.60805647
321,5483934.432160066
2,1, 7,21, 0, 8,50.00,60.00,SummerDesignDay
8,14.630134792273804
10,75916409.83074594
321,2623547.0779231085
2,1, 7,21, 0, 8, 0.00,60.00,SummerDesignDay
555,20.43891673928773
595,23.997767286064648
635,20.426555759601255
675,20.399346752466234
715,20.755786881089866
2,1, 7,21, 0, 9, 0.00,10.00,SummerDesignDay
8,14.773641492809972
10,93540903.62990226
321,87865848.09571503
2,1, 7,21, 0, 9,10.00,20.00,SummerDesignDay
8,14.91640948124148
10,93793698.27190204
321,5745187.008653188
2,1, 7,21, 0, 9,20.00,30.00,SummerDesignDay
8,15.05843890714102
10,96801965.32462545
321,5828358.112427469
2,1, 7,21, 0, 9,30.00,40.00,SummerDesignDay
8,15.199735893563798
10,94302019.53453541
321,5720361.226899858
2,1, 7,21, 0, 9,40.00,50.00,SummerDesignDay
8,15.340306256439395
10,94541750.14946193
321,3273946.37712836
2,1, 7,21, 0, 9,50.00,60.00,SummerDesignDay
8,15.48015101768072
10,95639185.49442782
321,2573790.261975289
2,1, 7,21, 0, 9, 0.00,60.00,SummerDesignDay
555,22.574340229222206
595,23.998533263164388
635,22.568848014524478
675,23.011829195574234
715,22.015451325529665
2,1, 7,21, 0,10, 0.00,10.00,SummerDesignDay
8,15.60467292907716
10,127808650.93460067
321,7377428.112532489
2,1, 7,21, 0,10,10.00,20.00,SummerDesignDay
8,15.72862731650033
10,137025053.84480448
321,8105372.09478054
2,1, 7,21, 0,10,20.00,30.00,SummerDesignDay
8,15.852017409284228
10,140876107.4750169
321,8044193.356197039
2,1, 7,21, 0,10,30.00,40.00,SummerDesignDay
8,15.974848118364367
10,142757259.9778316
321,8045077.288602262
2,1, 7,21, 0,10,40.00,50.00,SummerDesignDay
8,16.097123145563505
10,146311093.5469248
321,8045063.844833902
2,1, 7,21, 0,10,50.00,60.00,SummerDesignDay
8,16.218846351168599
10,148890326.88621737
321,8044979.63704653
2,1, 7,21, 0,10, 0.00,60.00,SummerDesignDay
555,23.957991201876835
595,23.997736567247075
635,23.95581044895435
675,23.999166497245786
715,23.92999823541143
2,1, 7,21, 0,11, 0.00,10.00,SummerDesignDay
8,16.325793027093189
10,158953885.690813
321,8044893.7485409439
2,1, 7,21, 0,11,10.00,20.00,SummerDesignDay
8,16.432322158488288
10,160775705.83175428
321,8044806.165410656
2,1, 7,21, 0,11,20.00,30.00,SummerDesignDay
8,16.538424180249178
10,162304179.4398301
321,8044716.872395701
2,1, 7,21, 0,11,30.00,40.00,SummerDesignDay
8,16.644108396469087
10,163826901.5527414
321,8044625.854363101
2,1, 7,21, 0,11,40.00,50.00,SummerDesignDay
8,16.749376736593655
10,165291191.46519668
321,7684272.711560905
2,1, 7,21, 0,11,50.00,60.00,SummerDesignDay
8,16.854232613237156
10,166722254.23816044
321,7298387.854923515
2,1, 7,21, 0,11, 0.00,60.00,SummerDesignDay
555,23.99983294374123
595,23.99760725770156
635,23.999845795537057
675,23.99963317670391
715,23.99972674391911
2,1, 7,21, 0,12, 0.00,10.00,SummerDesignDay
8,16.92390823520069
10,174487654.90974296
321,5882874.735241284
2,1, 7,21, 0,12,10.00,20.00,SummerDesignDay
8,16.99340178950456
10,175583161.2302807
321,5690225.47782924
2,1, 7,21, 0,12,20.00,30.00,SummerDesignDay
8,17.06272006743463
10,176539633.4297885
321,5686158.758690715
2,1, 7,21, 0,12,30.00,40.00,SummerDesignDay
8,17.131853229172639
10,177491650.29815177
321,5681926.979128615
2,1, 7,21, 0,12,40.00,50.00,SummerDesignDay
8,17.200807172194087
10,178429267.13672138
321,5786302.910691122
2,1, 7,21, 0,12,50.00,60.00,SummerDesignDay
8,17.269582116758607
10,179350666.85125435
321,6821981.460379968
2,1, 7,21, 0,12, 0.00,60.00,SummerDesignDay
555,23.999781135983978
595,23.997474326322974
635,23.999799809491653
675,23.999563756482748
715,23.99948576102349
2,1, 7,21, 0,13, 0.00,10.00,SummerDesignDay
8,17.32447360221357
10,182511595.6871743
321,7143742.667788184
2,1, 7,21, 0,13,10.00,20.00,SummerDesignDay
8,17.379251291230806
10,183441168.8347335
321,7181836.406013112
2,1, 7,21, 0,13,20.00,30.00,SummerDesignDay
8,17.433921312061729
10,184246171.8495864
321,7181978.588008812
2,1, 7,21, 0,13,30.00,40.00,SummerDesignDay
8,17.488473222557489
10,185049073.89701028
321,7182103.842670664
2,1, 7,21, 0,13,40.00,50.00,SummerDesignDay
8,17.542913447755134
10,185829423.51954694
321,7182226.920076348
2,1, 7,21, 0,13,50.00,60.00,SummerDesignDay
8,17.59724609886134
10,186590883.47179298
321,7182348.18544351
2,1, 7,21, 0,13, 0.00,60.00,SummerDesignDay
555,23.999688075574939
595,23.997402486664944
635,23.999712935699596
675,23.99942082635449
715,23.99911594691318
2,1, 7,21, 0,14, 0.00,10.00,SummerDesignDay
8,17.6311450462694
10,186861593.63113249
321,7543564.581503745
2,1, 7,21, 0,14,10.00,20.00,SummerDesignDay
8,17.665000449016245
10,187339380.7794775
321,7586181.582986944
2,1, 7,21, 0,14,20.00,30.00,SummerDesignDay
8,17.698812743128934
10,187801693.7051478
321,6990849.284969042
2,1, 7,21, 0,14,30.00,40.00,SummerDesignDay
8,17.732582050940107
10,188259643.6778755
321,6827234.230681781
2,1, 7,21, 0,14,40.00,50.00,SummerDesignDay
8,17.766307345121004
10,188712432.084067
321,6825889.38925413
2,1, 7,21, 0,14,50.00,60.00,SummerDesignDay
8,17.79999023167558
10,189162344.17065979
321,6824521.628215295
2,1, 7,21, 0,14, 0.00,60.00,SummerDesignDay
555,23.999639924651885
595,23.997355836502476
635,23.999669752920725
675,23.999323888848538
715,23.998969493318147
2,1, 7,21, 0,15, 0.00,10.00,SummerDesignDay
8,17.79999023167558
10,188491561.29396416
321,6823141.744740977
2,1, 7,21, 0,15,10.00,20.00,SummerDesignDay
8,17.79999023167558
10,188464175.11519993
321,6821749.821992231
2,1, 7,21, 0,15,20.00,30.00,SummerDesignDay
8,17.79999023167558
10,188458180.96572707
321,6820345.712920813
2,1, 7,21, 0,15,30.00,40.00,SummerDesignDay
8,17.79999023167558
10,188447275.3861154
321,6818929.268170768
2,1, 7,21, 0,15,40.00,50.00,SummerDesignDay
8,17.79999023167558
10,188439879.94896008
321,6817500.335967557
2,1, 7,21, 0,15,50.00,60.00,SummerDesignDay
8,17.79999023167558
10,188435633.8085368
321,7047409.834859278
2,1, 7,21, 0,15, 0.00,60.00,SummerDesignDay
555,23.999630713451479
595,23.997296459703305
635,23.999661953478879
675,23.999296813546637
715,23.999197030366078
2,1, 7,21, 0,16, 0.00,10.00,SummerDesignDay
8,17.759562446305357
10,187229169.92521868
321,6890821.337735339
2,1, 7,21, 0,16,10.00,20.00,SummerDesignDay
8,17.71907809634183
10,186634304.3867965
321,6822283.229730816
2,1, 7,21, 0,16,20.00,30.00,SummerDesignDay
8,17.67853788661001
10,186094797.60152857
321,6822654.503569983
2,1, 7,21, 0,16,30.00,40.00,SummerDesignDay
8,17.63791796367351
10,185549116.23862375
321,6823072.129872405
2,1, 7,21, 0,16,40.00,50.00,SummerDesignDay
8,17.59724609886134
10,185007513.8590227
321,6823489.638497931
2,1, 7,21, 0,16,50.00,60.00,SummerDesignDay
8,17.55650676726033
10,184470254.70967997
321,6823905.171483703
2,1, 7,21, 0,16, 0.00,60.00,SummerDesignDay
555,23.99962343264237
595,23.99720965441105
635,23.99965571312463
675,23.9992694158105
715,23.99952815567163
2,1, 7,21, 0,17, 0.00,10.00,SummerDesignDay
8,17.50209486331892
10,184510679.88735254
321,6534832.683069862
2,1, 7,21, 0,17,10.00,20.00,SummerDesignDay
8,17.447570789624618
10,183849560.67147795
321,5479847.319008814
2,1, 7,21, 0,17,20.00,30.00,SummerDesignDay
8,17.392929544208135
10,183168655.90686444
321,4999767.115982593
2,1, 7,21, 0,17,30.00,40.00,SummerDesignDay
8,17.33818013976614
10,182486024.30220465
321,4991135.376728879
2,1, 7,21, 0,17,40.00,50.00,SummerDesignDay
8,17.283317298559309
10,181797440.73303245
321,4982122.243323687
2,1, 7,21, 0,17,50.00,60.00,SummerDesignDay
8,17.22833552437677
10,181103777.85949446
321,6030624.8239143029
2,1, 7,21, 0,17, 0.00,60.00,SummerDesignDay
555,23.999563867531106
595,23.997128577700097
635,23.999599191669437
675,23.999171504452677
715,23.999683329550014
2,1, 7,21, 0,18, 0.00,10.00,SummerDesignDay
8,17.159453019160176
10,179720278.08644627
321,6500234.626900154
2,1, 7,21, 0,18,10.00,20.00,SummerDesignDay
8,17.090391773337136
10,178809749.6717679
321,6501162.17883218
2,1, 7,21, 0,18,20.00,30.00,SummerDesignDay
8,17.021151077964786
10,177917888.6207975
321,6502158.776872561
2,1, 7,21, 0,18,30.00,40.00,SummerDesignDay
8,16.951729380464653
10,177024392.07257534
321,6503155.881020978
2,1, 7,21, 0,18,40.00,50.00,SummerDesignDay
8,16.882126503829249
10,176132490.48169757
321,6504151.100705796
2,1, 7,21, 0,18,50.00,60.00,SummerDesignDay
8,16.812341807494034
10,175242971.66218663
321,5902060.939970796
2,1, 7,21, 0,18, 0.00,60.00,SummerDesignDay
555,23.99959190804312
595,23.997079437756779
635,23.99962725218303
675,23.999196687955189
715,23.999656774132864
2,1, 7,21, 0,19, 0.00,10.00,SummerDesignDay
8,16.707321072823203
10,173116337.98725734
321,5630516.779345771
2,1, 7,21, 0,19,10.00,20.00,SummerDesignDay
8,16.601881826644556
10,171764017.47483043
321,5690844.594790481
2,1, 7,21, 0,19,20.00,30.00,SummerDesignDay
8,16.496030555252849
10,170426784.70041988
321,5686634.756999484
2,1, 7,21, 0,19,30.00,40.00,SummerDesignDay
8,16.389760181474104
10,169087682.51191316
321,5682403.960388888
2,1, 7,21, 0,19,40.00,50.00,SummerDesignDay
8,16.283067654262039
10,167750561.79953165
321,5678107.338165275
2,1, 7,21, 0,19,50.00,60.00,SummerDesignDay
8,16.17595057957811
10,166415720.56255798
321,6803102.473808822
2,1, 7,21, 0,19, 0.00,60.00,SummerDesignDay
555,23.99971175387343
595,23.99703917488644
635,23.9997407236666
675,23.999381409212189
715,23.999411230417747
2,1, 7,21, 0,20, 0.00,10.00,SummerDesignDay
8,16.097123145563505
10,146744974.37414793
321,7143721.532406425
2,1, 7,21, 0,20,10.00,20.00,SummerDesignDay
8,16.018070242471564
10,144738804.42375008
321,7181818.81259506
2,1, 7,21, 0,20,20.00,30.00,SummerDesignDay
8,15.938779752340516
10,142976006.0561206
321,7181961.7665125229
2,1, 7,21, 0,20,30.00,40.00,SummerDesignDay
8,15.85926152575189
10,141185748.97062768
321,7182087.275548851
2,1, 7,21, 0,20,40.00,50.00,SummerDesignDay
8,15.779503718563929
10,139382776.20349498
321,7182210.5926471319
2,1, 7,21, 0,20,50.00,60.00,SummerDesignDay
8,15.699515709672767
10,137561016.5353719
321,7182332.101612908
2,1, 7,21, 0,20, 0.00,60.00,SummerDesignDay
555,23.999869306682997
595,23.996730868525618
635,23.99988573899134
675,23.999741011602635
715,23.998998273649617
2,1, 7,21, 0,21, 0.00,10.00,SummerDesignDay
8,15.63389147320404
10,130404040.3047347
321,8404375.915174393
2,1, 7,21, 0,21,10.00,20.00,SummerDesignDay
8,15.56810827419793
10,128792349.58465773
321,8550243.230113583
2,1, 7,21, 0,21,20.00,30.00,SummerDesignDay
8,15.502170882753524
10,127234628.03434241
321,7719948.169633383
2,1, 7,21, 0,21,30.00,40.00,SummerDesignDay
8,15.436068032613852
10,125649557.23763015
321,7719025.893339432
2,1, 7,21, 0,21,40.00,50.00,SummerDesignDay
8,15.369804371206009
10,124001012.63158773
321,7718039.8450510059
2,1, 7,21, 0,21,50.00,60.00,SummerDesignDay
8,15.303384603594449
10,123231970.65829569
321,7717043.099539153
2,1, 7,21, 0,21, 0.00,60.00,SummerDesignDay
555,24.00319691289805
595,23.996997926083425
635,23.999911593423748
675,23.99984974956779
715,23.998807898487259
2,1, 7,21, 0,22, 0.00,10.00,SummerDesignDay
8,15.236797685071274
10,100294715.30686407
321,7716038.507320156
2,1, 7,21, 0,22,10.00,20.00,SummerDesignDay
8,15.170047891787942
10,99832596.94365795
321,7715025.988252041
2,1, 7,21, 0,22,20.00,30.00,SummerDesignDay
8,15.103134826860483
10,99352855.6502137
321,7714005.460337276
2,1, 7,21, 0,22,30.00,40.00,SummerDesignDay
8,15.036063385178485
10,98865965.79424873
321,7712976.840473778
2,1, 7,21, 0,22,40.00,50.00,SummerDesignDay
8,14.968821767219835
10,98375779.82645892
321,7711940.044449533
2,1, 7,21, 0,22,50.00,60.00,SummerDesignDay
8,14.90141525878635
10,97884378.8916598
321,7910512.081013873
2,1, 7,21, 0,22, 0.00,60.00,SummerDesignDay
555,23.405797606521657
595,23.99716559951329
635,23.45228450183122
675,23.411643753093558
715,23.998771774012967
2,1, 7,21, 0,23, 0.00,10.00,SummerDesignDay
8,14.848873673278373
10,96692529.20472194
321,9112128.259570567
2,1, 7,21, 0,23,10.00,20.00,SummerDesignDay
8,14.796237168136719
10,96286500.49717479
321,9176583.304629604
2,1, 7,21, 0,23,20.00,30.00,SummerDesignDay
8,14.743494321455645
10,95892656.51383111
321,9176349.315972779
2,1, 7,21, 0,23,30.00,40.00,SummerDesignDay
8,14.690649975253665
10,95494263.8357537
321,10138481.00877816
2,1, 7,21, 0,23,40.00,50.00,SummerDesignDay
8,14.637704281233117
10,95096988.81205535
321,9175897.47215736
2,1, 7,21, 0,23,50.00,60.00,SummerDesignDay
8,14.584656914839757
10,94697271.26048954
321,11484527.765408872
2,1, 7,21, 0,23, 0.00,60.00,SummerDesignDay
555,23.117037912799149
595,23.997278626298898
635,23.116256669075204
675,23.109700447762365
715,23.999069561449685
2,1, 7,21, 0,24, 0.00,10.00,SummerDesignDay
8,14.531507212058875
10,93739864.26825471
321,10210537.471280018
2,1, 7,21, 0,24,10.00,20.00,SummerDesignDay
8,14.47825496413355
10,93304462.05901367
321,10443529.924714676
2,1, 7,21, 0,24,20.00,30.00,SummerDesignDay
8,14.4249000133173
10,92736530.40929665
321,11450333.505141342
2,1, 7,21, 0,24,30.00,40.00,SummerDesignDay
8,14.371447531304272
10,92643864.77863199
321,11433584.730522637
2,1, 7,21, 0,24,40.00,50.00,SummerDesignDay
8,14.31788619902223
10,92550224.79959345
321,11495240.436609399
2,1, 7,21, 0,24,50.00,60.00,SummerDesignDay
8,14.264220970176066
10,92455239.41676556
321,11579462.797800506
2,1, 7,21, 0,24, 0.00,60.00,SummerDesignDay
555,22.74198400107605
595,23.997335321269035
635,22.65551598721878
675,22.757037659207318
715,23.994005883939214
3,1, 7,21, 0,SummerDesignDay
556,50.13830101013056,45.0102101157878,10,60,59.481145321952528, 7,40
596,51.251171963921418,48.976876849177248,23,40,54.31271737795249,16,20
636,50.22342073258746,45.02521444737259,10,60,59.5714011145676, 7,40
676,49.08488478231116,44.259850982914688,10,60,56.61739997720171, 8,20
716,48.516803651779678,44.64857145487417,18,60,55.31032152450508, 7,60
4,1, 7
7,22.2505,16.5,21, 5,60,28.9,21,14,60
1,FORT MCMURRAY AP ANN HTG 99.6% CONDNS DB,  56.65,-111.22,  -7.00, 369.10
2,1, 1,21, 0, 1, 0.00,10.00,WinterDesignDay
8,-36.2
10,88828934.86447364
321,1652875401.404501
2,1, 1,21, 0, 1,10.00,20.00,WinterDesignDay
8,-36.2
10,88828934.86447364
321,1653069485.5187822
2,1, 1,21, 0, 1,20.00,30.00,WinterDesignDay
8,-36.2
10,88828934.86447364
321,1653112230.702738
2,1, 1,21, 0, 1,30.00,40.00,WinterDesignDay
8,-36.2
10,88828934.86447364
321,1653161105.710567
2,1, 1,21, 0, 1,40.00,50.00,WinterDesignDay
8,-36.2
10,88828934.86447364
321,1653205529.31336
2,1, 1,21, 0, 1,50.00,60.00,WinterDesignDay
8,-36.2
10,88828934.86447364
321,1653243398.4176503
2,1, 1,21, 0, 1, 0.00,60.00,WinterDesignDay
555,17.999999998408339
595,21.997650397813275
635,17.999999998949219
675,17.99999999864382
715,21.999545870288299
2,1, 1,21, 0, 2, 0.00,10.00,WinterDesignDay
8,-36.2
10,78970353.34433662
321,1662361488.5640963
2,1, 1,21, 0, 2,10.00,20.00,WinterDesignDay
8,-36.2
10,78970353.34433662
321,1663170262.1989046
2,1, 1,21, 0, 2,20.00,30.00,WinterDesignDay
8,-36.2
10,78970353.34433662
321,1663321202.8058215
2,1, 1,21, 0, 2,30.00,40.00,WinterDesignDay
8,-36.2
10,78970353.34433662
321,1664030690.4279488
2,1, 1,21, 0, 2,40.00,50.00,WinterDesignDay
8,-36.2
10,78970353.34433662
321,1664479454.7129875
2,1, 1,21, 0, 2,50.00,60.00,WinterDesignDay
8,-36.2
10,78970353.34433662
321,1664611293.3868759
2,1, 1,21, 0, 2, 0.00,60.00,WinterDesignDay
555,17.999999999952015
595,21.83158841382138
635,17.9999999999695
675,17.999999999960907
715,21.999851785466395
2,1, 1,21, 0, 3, 0.00,10.00,WinterDesignDay
8,-36.2
10,69111771.82419959
321,1612192596.9320508
2,1, 1,21, 0, 3,10.00,20.00,WinterDesignDay
8,-36.2
10,69111771.82419959
321,1621357073.0341984
2,1, 1,21, 0, 3,20.00,30.00,WinterDesignDay
8,-36.2
10,69111771.8241996
321,1631690515.2303465
2,1, 1,21, 0, 3,30.00,40.00,WinterDesignDay
8,-36.2
10,69111771.8241996
321,1637783351.764069
2,1, 1,21, 0, 3,40.00,50.00,WinterDesignDay
8,-36.2
10,69111771.8241996
321,1638361267.652042
2,1, 1,21, 0, 3,50.00,60.00,WinterDesignDay
8,-36.2
10,69111771.8241996
321,1638542607.252318
2,1, 1,21, 0, 3, 0.00,60.00,WinterDesignDay
555,17.999999999999294
595,21.70107399752419
635,17.999999999999529
675,17.999999999999447
715,18.428465246984787
2,1, 1,21, 0, 4, 0.00,10.00,WinterDesignDay
8,-36.2
10,69111771.8241996
321,1639590218.2780872
2,1, 1,21, 0, 4,10.00,20.00,WinterDesignDay
8,-36.2
10,69111771.8241996
321,1641589455.1419287
2,1, 1,21, 0, 4,20.00,30.00,WinterDesignDay
8,-36.2
10,69111771.8241996
321,1641837567.5088597
2,1, 1,21, 0, 4,30.00,40.00,WinterDesignDay
8,-36.2
10,69111771.8241996
321,1642027705.723366
2,1, 1,21, 0, 4,40.00,50.00,WinterDesignDay
8,-36.2
10,69111771.8241996
321,1642182817.955539
2,1, 1,21, 0, 4,50.00,60.00,WinterDesignDay
8,-36.2
10,69111771.8241996
321,1642301704.6078287
2,1, 1,21, 0, 4, 0.00,60.00,WinterDesignDay
555,17.999999999999898
595,21.58163584831817
635,17.999999999999927
675,17.999999999999923
715,18.000010950707315
2,1, 1,21, 0, 5, 0.00,10.00,WinterDesignDay
8,-36.2
10,69111771.8241996
321,1640566439.02349
2,1, 1,21, 0, 5,10.00,20.00,WinterDesignDay
8,-36.2
10,69111771.8241996
321,1640512772.5392736
2,1, 1,21, 0, 5,20.00,30.00,WinterDesignDay
8,-36.2
10,69111771.8241996
321,1640553851.1010962
2,1, 1,21, 0, 5,30.00,40.00,WinterDesignDay
8,-36.2
10,69111771.8241996
321,1642575111.3241144
2,1, 1,21, 0, 5,40.00,50.00,WinterDesignDay
8,-36.2
10,69111771.8241996
321,1642617257.416094
2,1, 1,21, 0, 5,50.00,60.00,WinterDesignDay
8,-36.2
10,69111771.8241996
321,1642651997.6317585
2,1, 1,21, 0, 5, 0.00,60.00,WinterDesignDay
555,17.999999999999998
595,21.52958017773781
635,18.0
675,17.999999999999998
715,17.99999661293762
2,1, 1,21, 0, 6, 0.00,10.00,WinterDesignDay
8,-36.2
10,69111771.8241996
321,1642683904.4346686
2,1, 1,21, 0, 6,10.00,20.00,WinterDesignDay
8,-36.2
10,69111771.8241996
321,1642711863.2693916
2,1, 1,21, 0, 6,20.00,30.00,WinterDesignDay
8,-36.2
10,69111771.8241996
321,1641188846.9638067
2,1, 1,21, 0, 6,30.00,40.00,WinterDesignDay
8,-36.2
10,69111771.8241996
321,1640796435.3027833
2,1, 1,21, 0, 6,40.00,50.00,WinterDesignDay
8,-36.2
10,69111771.8241996
321,1640791268.746564
2,1, 1,21, 0, 6,50.00,60.00,WinterDesignDay
8,-36.2
10,69111771.8241996
321,1642475963.7107323
2,1, 1,21, 0, 6, 0.00,60.00,WinterDesignDay
555,18.0
595,21.512179883530896
635,18.0
675,18.0
715,17.999996733922456
2,1, 1,21, 0, 7, 0.00,10.00,WinterDesignDay
8,-36.2
10,69111771.8241996
321,1642785054.293808
2,1, 1,21, 0, 7,10.00,20.00,WinterDesignDay
8,-36.2
10,69111771.8241996
321,1642794458.5840889
2,1, 1,21, 0, 7,20.00,30.00,WinterDesignDay
8,-36.2
10,69111771.8241996
321,1642802789.905135
2,1, 1,21, 0, 7,30.00,40.00,WinterDesignDay
8,-36.2
10,69111771.8241996
321,1642811189.9793187
2,1, 1,21, 0, 7,40.00,50.00,WinterDesignDay
8,-36.2
10,69111771.8241996
321,1641558755.3804134
2,1, 1,21, 0, 7,50.00,60.00,WinterDesignDay
8,-36.2
10,69111771.8241996
321,1640869732.3055509
2,1, 1,21, 0, 7, 0.00,60.00,WinterDesignDay
555,18.0
595,21.505533500814406
635,18.0
675,18.0
715,17.9999967570597
2,1, 1,21, 0, 8, 0.00,10.00,WinterDesignDay
8,-36.2
10,69119774.40801338
321,1767756213.5858517
2,1, 1,21, 0, 8,10.00,20.00,WinterDesignDay
8,-36.2
10,69111771.8241996
321,1630482508.760198
2,1, 1,21, 0, 8,20.00,30.00,WinterDesignDay
8,-36.2
10,69111771.8241996
321,1715544022.40089
2,1, 1,21, 0, 8,30.00,40.00,WinterDesignDay
8,-36.2
10,69111771.8241996
321,1698761847.6894909
2,1, 1,21, 0, 8,40.00,50.00,WinterDesignDay
8,-36.2
10,69111771.8241996
321,1696927414.8828107
2,1, 1,21, 0, 8,50.00,60.00,WinterDesignDay
8,-36.2
10,69111771.8241996
321,1696470294.0368376
2,1, 1,21, 0, 8, 0.00,60.00,WinterDesignDay
555,19.981604131683978
595,21.515692704997109
635,19.98234081060459
675,19.982120685320397
715,17.999997246238065
2,1, 1,21, 0, 9, 0.00,10.00,WinterDesignDay
8,-36.2
10,89714756.35076535
321,1842962685.1665552
2,1, 1,21, 0, 9,10.00,20.00,WinterDesignDay
8,-36.2
10,89706755.38630224
321,1660760043.43229
2,1, 1,21, 0, 9,20.00,30.00,WinterDesignDay
8,-36.2
10,89706753.76695156
321,1766691410.0160704
2,1, 1,21, 0, 9,30.00,40.00,WinterDesignDay
8,-36.2
10,89706753.76695156
321,1746435850.476768
2,1, 1,21, 0, 9,40.00,50.00,WinterDesignDay
8,-36.2
10,89706753.76695156
321,1746250007.9647227
2,1, 1,21, 0, 9,50.00,60.00,WinterDesignDay
8,-36.2
10,89706753.76695156
321,1743473542.2204025
2,1, 1,21, 0, 9, 0.00,60.00,WinterDesignDay
555,21.979313743439403
595,22.111575833723597
635,21.980075500575173
675,21.981115290977866
715,19.981889382483869
2,1, 1,21, 0,10, 0.00,10.00,WinterDesignDay
8,-36.2
10,117871987.95236956
321,1757690261.8637665
2,1, 1,21, 0,10,10.00,20.00,WinterDesignDay
8,-36.2
10,117871989.23612502
321,1713962759.128934
2,1, 1,21, 0,10,20.00,30.00,WinterDesignDay
8,-36.2
10,117920001.40575089
321,1735801074.471353
2,1, 1,21, 0,10,30.00,40.00,WinterDesignDay
8,-36.2
10,117871991.4443409
321,1728754028.9966388
2,1, 1,21, 0,10,40.00,50.00,WinterDesignDay
8,-36.2
10,117871991.92070408
321,1727055996.0931342
2,1, 1,21, 0,10,50.00,60.00,WinterDesignDay
8,-36.2
10,117871992.15928404
321,1726058732.1165078
2,1, 1,21, 0,10, 0.00,60.00,WinterDesignDay
555,21.999999382065807
595,21.997937183472673
635,21.999994202476999
675,22.000000072547964
715,21.980677010602009
2,1, 1,21, 0,11, 0.00,10.00,WinterDesignDay
8,-36.2
10,122801284.5276624
321,1710543217.3423618
2,1, 1,21, 0,11,10.00,20.00,WinterDesignDay
8,-36.2
10,122801288.12223235
321,1708886919.6647244
2,1, 1,21, 0,11,20.00,30.00,WinterDesignDay
8,-36.2
10,122801291.91418419
321,1708382630.0091387
2,1, 1,21, 0,11,30.00,40.00,WinterDesignDay
8,-36.2
10,122801294.83056791
321,1708779748.2043257
2,1, 1,21, 0,11,40.00,50.00,WinterDesignDay
8,-36.2
10,122801296.45636219
321,1708799062.0319658