Program Version,EnergyPlus, Version 8.9.0-eba93e8e1b, YMD=2019.03.19 18:39
1,5,Environment Title[],Latitude[deg],Longitude[deg],Time Zone[],Elevation[m]
2,8,Day of Simulation[],Month[],Day of Month[],DST Indicator[1=yes 0=no],Hour[],StartMinute[],EndMinute[],DayType
3,5,Cumulative Day of Simulation[],Month[],Day of Month[],DST Indicator[1=yes 0=no],DayType  ! When Daily Report Variables Requested
4,2,Cumulative Days of Simulation[],Month[]  ! When Monthly Report Variables Requested
5,1,Cumulative Days of Simulation[] ! When Run Period Report Variables Requested
6,1,Calendar Year of Simulation[] ! When Annual Report Variables Requested
7,9,Environment,Site Outdoor Air Drybulb Temperature [C] !Monthly [Value,Min,Day,Hour,Minute,Max,Day,Hour,Minute]
8,1,Environment,Site Outdoor Air Wetbulb Temperature [C] !TimeStep
745,1,HOSPITAL CORR. < 2.4M-SCH-E-SPACE FUNCTION ZN,Zone Air Temperature [C] !Hourly
746,7,HOSPITAL CORR. < 2.4M-SCH-E-SPACE FUNCTION ZN,Zone Air Relative Humidity [%] !Daily [Value,Min,Hour,Minute,Max,Hour,Minute]
785,1,HOSPITAL CORR. < 2.4M-SCH-F-SPACE FUNCTION ZN,Zone Air Temperature [C] !Hourly
786,7,HOSPITAL CORR. < 2.4M-SCH-F-SPACE FUNCTION ZN,Zone Air Relative Humidity [%] !Daily [Value,Min,Hour,Minute,Max,Hour,Minute]
825,1,HOSPITAL CORR. < 2.4M-SCH-G-SPACE FUNCTION ZN,Zone Air Temperature [C] !Hourly
826,7,HOSPITAL CORR. < 2.4M-SCH-G-SPACE FUNCTION ZN,Zone Air Relative Humidity [%] !Daily [Value,Min,Hour,Minute,Max,Hour,Minute]
865,1,HOSPITAL CORR. < 2.4M-SCH-H-SPACE FUNCTION ZN,Zone Air Temperature [C] !Hourly
866,7,HOSPITAL CORR. < 2.4M-SCH-H-SPACE FUNCTION ZN,Zone Air Relative Humidity [%] !Daily [Value,Min,Hour,Minute,Max,Hour,Minute]
905,1,HOSPITAL CORR. < 2.4M-SCH-I-SPACE FUNCTION ZN,Zone Air Temperature [C] !Hourly
906,7,HOSPITAL CORR. < 2.4M-SCH-I-SPACE FUNCTION ZN,Zone Air Relative Humidity [%] !Daily [Value,Min,Hour,Minute,Max,Hour,Minute]
945,1,HOSPITAL CORR. >= 2.4M-SCH-A-SPACE FUNCTION ZN,Zone Air Temperature [C] !Hourly
946,7,HOSPITAL CORR. >= 2.4M-SCH-A-SPACE FUNCTION ZN,Zone Air Relative Humidity [%] !Daily [Value,Min,Hour,Minute,Max,Hour,Minute]
985,1,HOSPITAL CORR. >= 2.4M-SCH-B-SPACE FUNCTION ZN,Zone Air Temperature [C] !Hourly
986,7,HOSPITAL CORR. >= 2.4M-SCH-B-SPACE FUNCTION ZN,Zone Air Relative Humidity [%] !Daily [Value,Min,Hour,Minute,Max,Hour,Minute]
1025,1,HOSPITAL CORR. >= 2.4M-SCH-C-SPACE FUNCTION ZN,Zone Air Temperature [C] !Hourly
1026,7,HOSPITAL CORR. >= 2.4M-SCH-C-SPACE FUNCTION ZN,Zone Air Relative Humidity [%] !Daily [Value,Min,Hour,Minute,Max,Hour,Minute]
1065,1,HOSPITAL CORR. >= 2.4M-SCH-D-SPACE FUNCTION ZN,Zone Air Temperature [C] !Hourly
1066,7,HOSPITAL CORR. >= 2.4M-SCH-D-SPACE FUNCTION ZN,Zone Air Relative Humidity [%] !Daily [Value,Min,Hour,Minute,Max,Hour,Minute]
1105,1,HOSPITAL CORR. >= 2.4M-SCH-E-SPACE FUNCTION ZN,Zone Air Temperature [C] !Hourly
1106,7,HOSPITAL CORR. >= 2.4M-SCH-E-SPACE FUNCTION ZN,Zone Air Relative Humidity [%] !Daily [Value,Min,Hour,Minute,Max,Hour,Minute]
1145,1,HOSPITAL CORR. >= 2.4M-SCH-F-SPACE FUNCTION ZN,Zone Air Temperature [C] !Hourly
1146,7,HOSPITAL CORR. >= 2.4M-SCH-F-SPACE FUNCTION ZN,Zone Air Relative Humidity [%] !Daily [Value,Min,Hour,Minute,Max,Hour,Minute]
1185,1,HOSPITAL CORR. >= 2.4M-SCH-G-SPACE FUNCTION ZN,Zone Air Temperature [C] !Hourly
1186,7,HOSPITAL CORR. >= 2.4M-SCH-G-SPACE FUNCTION ZN,Zone Air Relative Humidity [%] !Daily [Value,Min,Hour,Minute,Max,Hour,Minute]
1225,1,HOSPITAL CORR. >= 2.4M-SCH-H-SPACE FUNCTION ZN,Zone Air Temperature [C] !Hourly
1226,7,HOSPITAL CORR. >= 2.4M-SCH-H-SPACE FUNCTION ZN,Zone Air Relative Humidity [%] !Daily [Value,Min,Hour,Minute,Max,Hour,Minute]
1265,1,HOSPITAL CORR. >= 2.4M-SCH-I-SPACE FUNCTION ZN,Zone Air Temperature [C] !Hourly
1266,7,HOSPITAL CORR. >= 2.4M-SCH-I-SPACE FUNCTION ZN,Zone Air Relative Humidity [%] !Daily [Value,Min,Hour,Minute,Max,Hour,Minute]
1305,1,HOTEL/MOTEL - DINING-SPACE FUNCTION ZN,Zone Air Temperature [C] !Hourly
1306,7,HOTEL/MOTEL - DINING-SPACE FUNCTION ZN,Zone Air Relative Humidity [%] !Daily [Value,Min,Hour,Minute,Max,Hour,Minute]
1345,1,HOTEL/MOTEL - LOBBY-SPACE FUNCTION ZN,Zone Air Temperature [C] !Hourly
1346,7,HOTEL/MOTEL - LOBBY-SPACE FUNCTION ZN,Zone Air Relative Humidity [%] !Daily [Value,Min,Hour,Minute,Max,Hour,Minute]
1385,1,HOTEL/MOTEL - ROOMS-SPACE FUNCTION ZN,Zone Air Temperature [C] !Hourly
1386,7,HOTEL/MOTEL - ROOMS-SPACE FUNCTION ZN,Zone Air Relative Humidity [%] !Daily [Value,Min,Hour,Minute,Max,Hour,Minute]
1425,1,HWAY LODGING - DINING-SPACE FUNCTION ZN,Zone Air Temperature [C] !Hourly
1426,7,HWAY LODGING - DINING-SPACE FUNCTION ZN,Zone Air Relative Humidity [%] !Daily [Value,Min,Hour,Minute,Max,Hour,Minute]
1465,1,HWAY LODGING - ROOMS-SPACE FUNCTION ZN,Zone Air Temperature [C] !Hourly
1466,7,HWAY LODGING - ROOMS-SPACE FUNCTION ZN,Zone Air Relative Humidity [%] !Daily [Value,Min,Hour,Minute,Max,Hour,Minute]
1505,1,LAB - CLASSROOMS-SPACE FUNCTION ZN,Zone Air Temperature [C] !Hourly
1506,7,LAB - CLASSROOMS-SPACE FUNCTION ZN,Zone Air Relative Humidity [%] !Daily [Value,Min,Hour,Minute,Max,Hour,Minute]
10,1,Electricity:Facility [J] !TimeStep
1656,1,DistrictCooling:Facility [J] !TimeStep
1619,1,DistrictHeating:Facility [J] !TimeStep
End of Data Dictionary
1,FORT MCMURRAY AP ANN CLG .4% CONDNS DB=>MWB,  56.65,-111.22,  -7.00, 369.10
2,1, 7,21, 0, 1, 0.00,10.00,SummerDesignDay
8,14.218136923962174
10,109206591.11874874
1619,0.0
1656,39234135.489878337
2,1, 7,21, 0, 1,10.00,20.00,SummerDesignDay
8,14.171982153293495
10,109206591.11874874
1619,0.0
1656,37472184.938229229
2,1, 7,21, 0, 1,20.00,30.00,SummerDesignDay
8,14.125744780286427
10,109206591.11874874
1619,0.0
1656,35840146.842745978
2,1, 7,21, 0, 1,30.00,40.00,SummerDesignDay
8,14.079436086331978
10,109206591.11874874
1619,315234.0944673481
1656,34214902.79301643
2,1, 7,21, 0, 1,40.00,50.00,SummerDesignDay
8,14.033050387896898
10,109206591.11874874
1619,2318250.8829934757
1656,32600375.80173935
2,1, 7,21, 0, 1,50.00,60.00,SummerDesignDay
8,13.986581233564835
10,109206591.11874874
1619,2539685.837113004
1656,30946764.928136745
2,1, 7,21, 0, 1, 0.00,60.00,SummerDesignDay
745,22.861302347078295
785,23.787376688387199
825,23.733025593089726
865,24.00000000000001
905,24.60504018530733
945,24.372909561418067
985,24.0
1025,24.18413761033781
1065,24.820596876601269
1105,23.77658132765663
1145,23.854962463976123
1185,23.83062633045289
1225,24.00000000000001
1265,24.619050587740096
1305,22.127638483704915
1345,24.0
1385,24.000000000000019
1425,22.59623233351941
1465,24.0
1505,22.65908517772249
2,1, 7,21, 0, 2, 0.00,10.00,SummerDesignDay
8,13.95555882260429
10,72571271.01949522
1619,7109416.265639248
1656,26802394.880029538
2,1, 7,21, 0, 2,10.00,20.00,SummerDesignDay
8,13.924507755336454
10,72571271.01949522
1619,8941794.55992299
1656,25564750.280176488
2,1, 7,21, 0, 2,20.00,30.00,SummerDesignDay
8,13.893416042989206
10,72571271.01949522
1619,11056336.212789853
1656,24383802.635882956
2,1, 7,21, 0, 2,30.00,40.00,SummerDesignDay
8,13.862289589689029
10,72571271.01949522
1619,11514622.38797609
1656,23202895.295787455
2,1, 7,21, 0, 2,40.00,50.00,SummerDesignDay
8,13.831134407608739
10,72571271.01949522
1619,12876593.556414752
1656,22025526.445699477
2,1, 7,21, 0, 2,50.00,60.00,SummerDesignDay
8,13.799938415548118
10,72571271.01949522
1619,14064377.551333417
1656,20852871.5738712
2,1, 7,21, 0, 2, 0.00,60.00,SummerDesignDay
745,22.46522293673087
785,23.24426393146928
825,22.925524036774936
865,24.00000000000001
905,24.385848604617367
945,24.108072122955293
985,23.80058217840389
1025,23.9114564726232
1065,24.541090002871596
1105,23.56870858818918
1145,23.55549985921509
1185,23.37439277096983
1225,24.0
1265,24.497715065673959
1305,22.000041133748498
1345,24.0
1385,23.999999999999998
1425,22.039883644175089
1465,24.00000000000001
1505,22.31514950561018
2,1, 7,21, 0, 3, 0.00,10.00,SummerDesignDay
8,13.776521671948676
10,59116382.99753169
1619,0.0
1656,19866755.105472827
2,1, 7,21, 0, 3,10.00,20.00,SummerDesignDay
8,13.753085235778466
10,59116382.99753169
1619,0.0
1656,18870066.904467197
2,1, 7,21, 0, 3,20.00,30.00,SummerDesignDay
8,13.729636002354969
10,59116382.99753169
1619,0.0
1656,17924082.058184495
2,1, 7,21, 0, 3,30.00,40.00,SummerDesignDay
8,13.706147375533054
10,59116382.99753169
1619,0.0
1656,17203387.360133616
2,1, 7,21, 0, 3,40.00,50.00,SummerDesignDay
8,13.682651961920304
10,59116382.99753169
1619,0.0
1656,16487507.11878261
2,1, 7,21, 0, 3,50.00,60.00,SummerDesignDay
8,13.659136670643687
10,59116382.99753169
1619,0.0
1656,15771397.139025765
2,1, 7,21, 0, 3, 0.00,60.00,SummerDesignDay
745,22.170826762435487
785,22.86336849074847
825,22.41557979671964
865,23.977562119649617
905,24.066798983002206
945,23.89428114234001
985,23.356274390268326
1025,23.69902819401952
1065,24.303653106294467
1105,23.411196534135926
1145,23.381608736666967
1185,23.137984984451039
1225,24.000000000000005
1265,24.248498503941076
1305,20.636093600590966
1345,24.00000000000001
1385,24.000000000000015
1425,21.385554256364
1465,24.000000000000005
1505,22.078586993662087
2,1, 7,21, 0, 4, 0.00,10.00,SummerDesignDay
8,13.63560137410855
10,53907676.34796994
1619,0.0
1656,13443477.795741536
2,1, 7,21, 0, 4,10.00,20.00,SummerDesignDay
8,13.612040802606578
10,53907676.34796994
1619,0.0
1656,12615112.001057625
2,1, 7,21, 0, 4,20.00,30.00,SummerDesignDay
8,13.58846620506876
10,53907676.34796994
1619,0.0
1656,11860103.710059567
2,1, 7,21, 0, 4,30.00,40.00,SummerDesignDay
8,13.56487178447336
10,53907676.34796994
1619,0.0
1656,11113185.103861766
2,1, 7,21, 0, 4,40.00,50.00,SummerDesignDay
8,13.541257354069103
10,53907676.34796994
1619,0.0
1656,10372870.904349709
2,1, 7,21, 0, 4,50.00,60.00,SummerDesignDay
8,13.517617463812285
10,53907676.34796994
1619,0.0
1656,9636795.019929918
2,1, 7,21, 0, 4, 0.00,60.00,SummerDesignDay
745,21.845029840974875
785,22.383674217054137
825,22.039310018089198
865,23.769311334117459
905,23.81601135657189
945,23.647328954601364
985,23.005775182109706
1025,23.456099470342737
1065,24.015879839229144
1105,23.221612736817517
1145,23.15125516151642
1185,22.970085033711059
1225,24.0
1265,24.060531141580954
1305,19.776355756966184
1345,24.0
1385,24.000000000000019
1425,20.936586508512254
1465,24.00000000000001
1505,21.839266864455828
2,1, 7,21, 0, 5, 0.00,10.00,SummerDesignDay
8,13.50185415824011
10,53907676.34796994
1619,0.0
1656,9048158.6053483
2,1, 7,21, 0, 5,10.00,20.00,SummerDesignDay
8,13.486076034032447
10,53907676.34796994
1619,0.0
1656,8975145.361036117
2,1, 7,21, 0, 5,20.00,30.00,SummerDesignDay
8,13.470289340350983
10,53907676.34796994
1619,0.0
1656,8923331.112164248
2,1, 7,21, 0, 5,30.00,40.00,SummerDesignDay
8,13.454493322631063
10,53907676.34796994
1619,0.0
1656,9108671.851931725
2,1, 7,21, 0, 5,40.00,50.00,SummerDesignDay
8,13.438688835118548
10,53907676.34796994
1619,0.0
1656,9387606.248845969
2,1, 7,21, 0, 5,50.00,60.00,SummerDesignDay
8,13.422888173889437
10,53907676.34796994
1619,0.0
1656,9695080.96152165
2,1, 7,21, 0, 5, 0.00,60.00,SummerDesignDay
745,21.628098830485656
785,22.085551121668769
825,22.03355316263209
865,23.684695617487664
905,23.605780045881315
945,23.5409930985816
985,22.841577465897048
1025,23.24447318035048
1065,23.75469511507543
1105,23.11160488102173
1145,22.98634030948631
1185,22.836073397605249
1225,23.992934473010324
1265,23.90887349630073
1305,19.473389105950316
1345,23.999999999999976
1385,23.999999999999998
1425,20.716759419792749
1465,24.00000000000001
1505,21.636932960502859
2,1, 7,21, 0, 6, 0.00,10.00,SummerDesignDay
8,13.438688835118548
10,53907676.34796994
1619,0.0
1656,10411623.048165495
2,1, 7,21, 0, 6,10.00,20.00,SummerDesignDay
8,13.454493322631063
10,53907676.34796994
1619,0.0
1656,11128989.593980447
2,1, 7,21, 0, 6,20.00,30.00,SummerDesignDay
8,13.470289340350983
10,53907676.34796994
1619,0.0
1656,12417770.38589168
2,1, 7,21, 0, 6,30.00,40.00,SummerDesignDay
8,13.486076034032447
10,53907676.34796994
1619,0.0
1656,13660105.079525186
2,1, 7,21, 0, 6,40.00,50.00,SummerDesignDay
8,13.50185415824011
10,53907676.34796994
1619,0.0
1656,14243109.595942647
2,1, 7,21, 0, 6,50.00,60.00,SummerDesignDay
8,13.517617463812285
10,53907676.34796994
1619,0.0
1656,15190148.152825088
2,1, 7,21, 0, 6, 0.00,60.00,SummerDesignDay
745,21.699012250835908
785,22.168392527572775
825,23.10908973006369
865,23.977696528972474
905,23.472500278478095
945,23.885619394316867
985,22.744315724886709
1025,23.0939054817068
1065,23.569001073547026
1105,23.112656353904268
1145,22.91375617256146
1185,22.756369215102557
1225,23.957914459966287
1265,23.82714493732657
1305,19.506350653750997
1345,24.000000000000026
1385,24.000000000000005
1425,20.677096136478938
1465,24.000000000000015
1505,21.546222776940238
2,1, 7,21, 0, 7, 0.00,10.00,SummerDesignDay
8,13.572736920571789
10,63908843.111592549
1619,0.0
1656,23787791.339383399
2,1, 7,21, 0, 7,10.00,20.00,SummerDesignDay
8,13.627748229152554
10,63908843.111592549
1619,0.0
1656,31679490.07361939
2,1, 7,21, 0, 7,20.00,30.00,SummerDesignDay
8,13.682651961920304
10,63908843.111592549
1619,0.0
1656,34286795.72957278
2,1, 7,21, 0, 7,30.00,40.00,SummerDesignDay
8,13.737448093244995
10,63908843.111592549
1619,0.0
1656,40232069.57118219
2,1, 7,21, 0, 7,40.00,50.00,SummerDesignDay
8,13.792137011831216
10,63908843.111592549
1619,0.0
1656,44370165.596839059
2,1, 7,21, 0, 7,50.00,60.00,SummerDesignDay
8,13.846719282840333
10,63908843.111592549
1619,0.0
1656,48582551.08407788
2,1, 7,21, 0, 7, 0.00,60.00,SummerDesignDay
745,22.13439064691245
785,22.7505563155528
825,23.9973049867687
865,23.99999999806164
905,23.473790635660607
945,24.00078595825865
985,22.767982434757895
1025,23.06878009201385
1065,23.51441149211441
1105,23.072750399918705
1145,23.0561847868652
1185,22.93685758280696
1225,23.99004341449741
1265,23.857700099343395
1305,19.983536175534149
1345,24.00000000000003
1385,24.00000000000001
1425,20.825967626893158
1465,24.0
1505,21.668015450078856
2,1, 7,21, 0, 8, 0.00,10.00,SummerDesignDay
8,13.978831900527043
10,84214924.10978973
1619,0.0
1656,60787029.50585269
2,1, 7,21, 0, 8,10.00,20.00,SummerDesignDay
8,14.110321014287419
10,84214924.10978973
1619,0.0
1656,67953775.61704569
2,1, 7,21, 0, 8,20.00,30.00,SummerDesignDay
8,14.241191509616986
10,84214924.10978973
1619,0.0
1656,74149407.68472378
2,1, 7,21, 0, 8,30.00,40.00,SummerDesignDay
8,14.371447531304272
10,84214924.10978973
1619,0.0
1656,82093565.45109025
2,1, 7,21, 0, 8,40.00,50.00,SummerDesignDay
8,14.501093766564925
10,84214924.10978973
1619,0.0
1656,93700264.03575264
2,1, 7,21, 0, 8,50.00,60.00,SummerDesignDay
8,14.630134792273804
10,84214924.10978973
1619,0.0
1656,101299425.04509273
2,1, 7,21, 0, 8, 0.00,60.00,SummerDesignDay
745,23.057373143338208
785,23.798582076573934
825,23.99999999979093
865,24.00000000000001
905,23.670055925463886
945,24.000000000013285
985,22.955268148506936
1025,23.22730483103983
1065,23.656486239900635
1105,23.232150829424488
1145,23.45357442345295
1185,23.38288884545506
1225,23.999999997202356
1265,24.050212790342017
1305,21.12434755696105
1345,24.000000000000026
1385,24.0
1425,21.422509876698546
1465,24.0
1505,22.105916036851928
2,1, 7,21, 0, 9, 0.00,10.00,SummerDesignDay
8,14.773641492809972
10,124125841.93928166
1619,0.0
1656,119210080.44854923
2,1, 7,21, 0, 9,10.00,20.00,SummerDesignDay
8,14.91640948124148
10,124125841.93928166
1619,0.0
1656,134420637.276922
2,1, 7,21, 0, 9,20.00,30.00,SummerDesignDay
8,15.05843890714102
10,124125841.93928166
1619,0.0
1656,147093169.9910738
2,1, 7,21, 0, 9,30.00,40.00,SummerDesignDay
8,15.199735893563798
10,124125841.93928166
1619,0.0
1656,163177311.14736185
2,1, 7,21, 0, 9,40.00,50.00,SummerDesignDay
8,15.340306256439395
10,124125841.93928166
1619,0.0
1656,175440903.37577329
2,1, 7,21, 0, 9,50.00,60.00,SummerDesignDay
8,15.48015101768072
10,124125841.93928166
1619,0.0
1656,191141857.04945753
2,1, 7,21, 0, 9, 0.00,60.00,SummerDesignDay
745,23.99765098022762
785,23.999999996502884
825,24.000000000000019
865,24.0
905,24.18467677485238
945,24.000000000000015
985,23.404254459983404
1025,23.876756710481194
1065,23.988383078392844
1105,23.857519640760626
1145,23.96503263219787
1185,23.92192055665932
1225,23.999999999999998
1265,24.49851207262992
1305,23.107390100523238
1345,24.000000000000019
1385,24.0
1425,22.585260050270617
1465,24.000000000000005
1505,23.440560834883646
2,1, 7,21, 0,10, 0.00,10.00,SummerDesignDay
8,15.60467292907716
10,166695487.6432866
1619,0.0
1656,239296746.86967267
2,1, 7,21, 0,10,10.00,20.00,SummerDesignDay
8,15.72862731650033
10,166695487.6432866
1619,0.0
1656,260022628.66475553
2,1, 7,21, 0,10,20.00,30.00,SummerDesignDay
8,15.852017409284228
10,166695487.6432866
1619,0.0
1656,281392137.7783706
2,1, 7,21, 0,10,30.00,40.00,SummerDesignDay
8,15.974848118364367
10,166695487.6432866
1619,0.0
1656,300765693.82592138
2,1, 7,21, 0,10,40.00,50.00,SummerDesignDay
8,16.097123145563505
10,166695487.6432866
1619,0.0
1656,318776527.98155769
2,1, 7,21, 0,10,50.00,60.00,SummerDesignDay
8,16.218846351168599
10,166695487.6432866
1619,0.0
1656,336921080.8959198
2,1, 7,21, 0,10, 0.00,60.00,SummerDesignDay
745,23.99999999999999
785,24.000000000000044
825,24.000000000000047
865,24.000000000000015
905,24.908367012613867
945,24.000000000000005
985,23.966084729233786
1025,23.999999999487483
1065,23.99999999999986
1105,23.999999995193688
1145,23.999999999994658
1185,23.999999999450098
1225,24.0
1265,25.026959777515498
1305,23.999355403363283
1345,24.00000000000003
1385,24.000000000000033
1425,23.857862218904829
1465,24.00000000000001
1505,23.999740381415994
2,1, 7,21, 0,11, 0.00,10.00,SummerDesignDay
8,16.325793027093189
10,179092884.46555425
1619,0.0
1656,360535587.4312142
2,1, 7,21, 0,11,10.00,20.00,SummerDesignDay
8,16.432322158488288
10,179092884.46555425
1619,0.0
1656,376533336.31852927
2,1, 7,21, 0,11,20.00,30.00,SummerDesignDay
8,16.538424180249178
10,179092884.46555425
1619,0.0
1656,390688373.888873
2,1, 7,21, 0,11,30.00,40.00,SummerDesignDay
8,16.644108396469087
10,179092884.46555425
1619,0.0
1656,404501196.8148456
2,1, 7,21, 0,11,40.00,50.00,SummerDesignDay
8,16.749376736593655
10,179092884.46555425
1619,0.0
1656,418133098.07492616
2,1, 7,21, 0,11,50.00,60.00,SummerDesignDay
8,16.854232613237156
10,179092884.46555425
1619,0.0
1656,431508817.61498668
2,1, 7,21, 0,11, 0.00,60.00,SummerDesignDay
745,24.000000000000019
785,24.000000000000015
825,24.0
865,24.0
905,25.82086827163076
945,23.99999999999997
985,23.999999999960296
1025,24.000000000000015
1065,24.0
1105,24.00000000000001
1145,24.000000000000005
1185,24.000000000000005
1225,24.0
1265,25.57901715534544
1305,23.999999997289604
1345,24.000000000000033
1385,24.000000000000005
1425,23.99998693589555
1465,24.000000000000005
1505,23.999999999914839
2,1, 7,21, 0,12, 0.00,10.00,SummerDesignDay
8,16.92390823520069
10,180611621.82697428
1619,0.0
1656,446653462.22790178
2,1, 7,21, 0,12,10.00,20.00,SummerDesignDay
8,16.99340178950456
10,180611621.82697428
1619,0.0
1656,456529050.5632889
2,1, 7,21, 0,12,20.00,30.00,SummerDesignDay
8,17.06272006743463
10,180611621.82697428
1619,0.0
1656,466219190.72053447
2,1, 7,21, 0,12,30.00,40.00,SummerDesignDay
8,17.131853229172639
10,180611621.82697428
1619,0.0
1656,475903354.0999955
2,1, 7,21, 0,12,40.00,50.00,SummerDesignDay
8,17.200807172194087
10,180611621.82697428
1619,0.0
1656,485576103.8738998
2,1, 7,21, 0,12,50.00,60.00,SummerDesignDay
8,17.269582116758607
10,180611621.82697428
1619,0.0
1656,495174368.99250546
2,1, 7,21, 0,12, 0.00,60.00,SummerDesignDay
745,24.000000000000015
785,24.000000000000019
825,24.0
865,23.999999999999984
905,26.719809129078358
945,24.000000000000019
985,23.99999999999999
1025,24.000000000000005
1065,24.000000000000026
1105,24.000000000000005
1145,24.0
1185,24.000000000000005
1225,24.000000000000015
1265,26.11828629047744
1305,23.999999999999884
1345,24.000000000000047
1385,24.000000000000019
1425,23.999999999085387
1465,24.000000000000005
1505,24.000000000000026
2,1, 7,21, 0,13, 0.00,10.00,SummerDesignDay
8,17.32447360221357
10,175402915.17741255
1619,0.0
1656,505271054.6285929
2,1, 7,21, 0,13,10.00,20.00,SummerDesignDay
8,17.379251291230806
10,175402915.17741255
1619,0.0
1656,512507128.34591498
2,1, 7,21, 0,13,20.00,30.00,SummerDesignDay
8,17.433921312061729
10,175402915.17741255
1619,0.0
1656,519552738.9904297
2,1, 7,21, 0,13,30.00,40.00,SummerDesignDay
8,17.488473222557489
10,175402915.17741255
1619,0.0
1656,526542524.6462176
2,1, 7,21, 0,13,40.00,50.00,SummerDesignDay
8,17.542913447755134
10,175402915.17741255
1619,0.0
1656,533377232.8908191
2,1, 7,21, 0,13,50.00,60.00,SummerDesignDay
8,17.59724609886134
10,175402915.17741255
1619,0.0
1656,539982656.9946977
2,1, 7,21, 0,13, 0.00,60.00,SummerDesignDay
745,24.000000000000005
785,24.000000000000019
825,24.00000000000003
865,24.000000000000055
905,27.37936690281897
945,24.000000000000019
985,24.00000000000001
1025,24.000000000000019
1065,24.0
1105,24.00000000000001
1145,24.000000000000005
1185,24.00000000000001
1225,23.999999999999998
1265,26.5340625381005
1305,24.000000000000019
1345,24.000000000000026
1385,24.000000000000019
1425,23.999999999999955
1465,24.000000000000005
1505,24.00000000000004
2,1, 7,21, 0,14, 0.00,10.00,SummerDesignDay
8,17.6311450462694
10,175402915.17741255
1619,0.0
1656,543040270.7386214
2,1, 7,21, 0,14,10.00,20.00,SummerDesignDay
8,17.665000449016245
10,175402915.17741255
1619,0.0
1656,547149009.0123017
2,1, 7,21, 0,14,20.00,30.00,SummerDesignDay
8,17.698812743128934
10,175402915.17741255
1619,0.0
1656,551205407.7665829
2,1, 7,21, 0,14,30.00,40.00,SummerDesignDay
8,17.732582050940107
10,175402915.17741255
1619,0.0
1656,555211534.2263235
2,1, 7,21, 0,14,40.00,50.00,SummerDesignDay
8,17.766307345121004
10,175402915.17741255
1619,0.0
1656,559178937.1810075
2,1, 7,21, 0,14,50.00,60.00,SummerDesignDay
8,17.79999023167558
10,175402915.17741255
1619,0.0
1656,563113091.1141303
2,1, 7,21, 0,14, 0.00,60.00,SummerDesignDay
745,23.999999999999984
785,24.00000000000003
825,24.00000000000001
865,24.000000000000058
905,27.836494597016089
945,24.0
985,24.0
1025,24.000000000000026
1065,24.00000000000001
1105,24.000000000000015
1145,24.0
1185,24.000000000000005
1225,24.000000000000005
1265,26.819501214899359
1305,24.000000000000019
1345,24.000000000000019
1385,24.00000000000001
1425,24.000000000000019
1465,24.000000000000015
1505,24.0
2,1, 7,21, 0,15, 0.00,10.00,SummerDesignDay
8,17.79999023167558
10,175402915.17741255
1619,0.0
1656,682233380.5357183
2,1, 7,21, 0,15,10.00,20.00,SummerDesignDay
8,17.79999023167558
10,175402915.17741255
1619,0.0
1656,605229770.1251254
2,1, 7,21, 0,15,20.00,30.00,SummerDesignDay
8,17.79999023167558
10,175402915.17741255
1619,0.0
1656,639105659.3431562
2,1, 7,21, 0,15,30.00,40.00,SummerDesignDay
8,17.79999023167558
10,175402915.17741255
1619,0.0
1656,598193597.0590576
2,1, 7,21, 0,15,40.00,50.00,SummerDesignDay
8,17.79999023167558
10,175402915.17741255
1619,0.0
1656,601103381.3589233
2,1, 7,21, 0,15,50.00,60.00,SummerDesignDay
8,17.79999023167558
10,175402915.17741255
1619,0.0
1656,600747547.1547134
2,1, 7,21, 0,15, 0.00,60.00,SummerDesignDay
745,24.00000000000007
785,24.000000000000026
825,23.99999999999999
865,24.00000000000001
905,23.89697200085881
945,24.00000000000001
985,24.000000000000005
1025,24.000000000000015
1065,24.000000000000005
1105,24.000000000000015
1145,24.0
1185,24.0
1225,23.999999999999998
1265,23.904373990655583
1305,24.000000000000026
1345,24.00000000000003
1385,24.000000000000015
1425,24.00000000000003
1465,24.000000000000015
1505,24.00000000000003
2,1, 7,21, 0,16, 0.00,10.00,SummerDesignDay
8,17.759562446305357
10,186185950.43404947
1619,0.0
1656,597106089.4289242
2,1, 7,21, 0,16,10.00,20.00,SummerDesignDay
8,17.71907809634183
10,186185950.43404947
1619,0.0
1656,592237616.251776
2,1, 7,21, 0,16,20.00,30.00,SummerDesignDay
8,17.67853788661001
10,186185950.43404947
1619,0.0
1656,586777496.4987177
2,1, 7,21, 0,16,30.00,40.00,SummerDesignDay
8,17.63791796367351
10,186185950.43404947
1619,0.0
1656,580959240.3053353
2,1, 7,21, 0,16,40.00,50.00,SummerDesignDay
8,17.59724609886134
10,186185950.43404947
1619,0.0
1656,574833558.3187938
2,1, 7,21, 0,16,50.00,60.00,SummerDesignDay
8,17.55650676726033
10,186185950.43404947
1619,0.0
1656,568437594.9082049
2,1, 7,21, 0,16, 0.00,60.00,SummerDesignDay
745,24.000000000000055
785,24.0
825,24.00000000000004
865,24.0
905,23.999999999989986
945,24.000000000000019
985,24.00000000000001
1025,24.000000000000019
1065,24.000000000000015
1105,23.999999999999998
1145,24.000000000000005
1185,24.0
1225,23.999999999999998
1265,23.99999999999873
1305,23.999999999999976
1345,24.000000000000026
1385,24.000000000000019
1425,24.00000000000001
1465,24.00000000000001
1505,24.0
2,1, 7,21, 0,17, 0.00,10.00,SummerDesignDay
8,17.50209486331892
10,175866036.32440353
1619,0.0
1656,555141578.1250522
2,1, 7,21, 0,17,10.00,20.00,SummerDesignDay
8,17.447570789624618
10,175866036.32440353
1619,0.0
1656,546476779.2152127
2,1, 7,21, 0,17,20.00,30.00,SummerDesignDay
8,17.392929544208135
10,175866036.32440353
1619,0.0
1656,537843395.3665
2,1, 7,21, 0,17,30.00,40.00,SummerDesignDay
8,17.33818013976614
10,175866036.32440353
1619,0.0
1656,529077919.08240947
2,1, 7,21, 0,17,40.00,50.00,SummerDesignDay
8,17.283317298559309
10,175866036.32440353
1619,0.0
1656,520182033.4460857
2,1, 7,21, 0,17,50.00,60.00,SummerDesignDay
8,17.22833552437677
10,175866036.32440353
1619,0.0
1656,511145000.58320108
2,1, 7,21, 0,17, 0.00,60.00,SummerDesignDay
745,24.000000000000033
785,24.000000000000015
825,24.00000000000003
865,24.000000000000019
905,24.000000000000015
945,24.000000000000026
985,24.000000000000015
1025,24.00000000000001
1065,24.000000000000026
1105,24.00000000000001
1145,24.000000000000005
1185,24.000000000000005
1225,24.000000000000005
1265,24.00000000000003
1305,24.00000000000004
1345,24.000000000000026
1385,24.00000000000001
1425,23.99999999999999
1465,24.0
1505,23.999999999999987
2,1, 7,21, 0,18, 0.00,10.00,SummerDesignDay
8,17.159453019160176
10,164466131.20356465
1619,0.0
1656,496842146.97374787
2,1, 7,21, 0,18,10.00,20.00,SummerDesignDay
8,17.090391773337136
10,164466131.20356465
1619,0.0
1656,485347319.1230612
2,1, 7,21, 0,18,20.00,30.00,SummerDesignDay
8,17.021151077964786
10,164466131.20356465
1619,0.0
1656,473755309.49874749
2,1, 7,21, 0,18,30.00,40.00,SummerDesignDay
8,16.951729380464653
10,164466131.20356465
1619,0.0
1656,462121413.0612617
2,1, 7,21, 0,18,40.00,50.00,SummerDesignDay
8,16.882126503829249
10,164466131.20356465
1619,0.0
1656,450563070.696748
2,1, 7,21, 0,18,50.00,60.00,SummerDesignDay
8,16.812341807494034
10,164466131.20356465
1619,0.0
1656,439023036.64651456
2,1, 7,21, 0,18, 0.00,60.00,SummerDesignDay
745,23.999999999999984
785,24.000000000000019
825,24.00000000000003
865,24.00000000000001
905,24.00000000000003
945,24.000000000000015
985,24.0
1025,24.0
1065,24.00000000000004
1105,24.00000000000003
1145,24.0
1185,24.0
1225,24.000000000000005
1265,23.999999999999984
1305,24.00000000000001
1345,24.000000000000033
1385,24.000000000000015
1425,24.000000000000033
1465,24.000000000000005
1505,24.000000000000019
2,1, 7,21, 0,19, 0.00,10.00,SummerDesignDay
8,16.707321072823203
10,154239966.31286247
1619,0.0
1656,421922739.6561306
2,1, 7,21, 0,19,10.00,20.00,SummerDesignDay
8,16.601881826644556
10,154239966.31286247
1619,0.0
1656,405556079.48346337
2,1, 7,21, 0,19,20.00,30.00,SummerDesignDay
8,16.496030555252849
10,154239966.31286247
1619,0.0
1656,389757394.7481451
2,1, 7,21, 0,19,30.00,40.00,SummerDesignDay
8,16.389760181474104
10,154239966.31286247
1619,0.0
1656,374155306.9048427
2,1, 7,21, 0,19,40.00,50.00,SummerDesignDay
8,16.283067654262039
10,154239966.31286247
1619,0.0
1656,358774184.3812651
2,1, 7,21, 0,19,50.00,60.00,SummerDesignDay
8,16.17595057957811
10,154239966.31286247
1619,0.0
1656,343528184.0527114
2,1, 7,21, 0,19, 0.00,60.00,SummerDesignDay
745,24.00000000000001
785,24.0
825,24.000000000000026
865,23.999999999999944
905,24.000000000000005
945,24.000000000000026
985,24.000000000000005
1025,24.00000000000001
1065,24.000000000000019
1105,24.000000000000005
1145,24.000000000000005
1185,24.000000000000005
1225,24.0
1265,24.000000000000026
1305,23.999999999999998
1345,24.000000000000019
1385,24.00000000000001
1425,24.000000000000033
1465,24.00000000000001
1505,23.999999999999976
2,1, 7,21, 0,20, 0.00,10.00,SummerDesignDay
8,16.097123145563505
10,192954644.10415165
1619,0.0
1656,338146620.24498608
2,1, 7,21, 0,20,10.00,20.00,SummerDesignDay
8,16.018070242471564
10,192954644.10415165
1619,0.0
1656,330131682.88227418
2,1, 7,21, 0,20,20.00,30.00,SummerDesignDay
8,15.938779752340516
10,192954644.10415165
1619,0.0
1656,318880778.6678421
2,1, 7,21, 0,20,30.00,40.00,SummerDesignDay
8,15.85926152575189
10,192954644.10415165
1619,0.0
1656,307466361.1789111
2,1, 7,21, 0,20,40.00,50.00,SummerDesignDay
8,15.779503718563929
10,192954644.10415165
1619,0.0
1656,295616875.5028803
2,1, 7,21, 0,20,50.00,60.00,SummerDesignDay
8,15.699515709672767
10,192954644.10415165
1619,0.0
1656,283319722.17284539
2,1, 7,21, 0,20, 0.00,60.00,SummerDesignDay
745,24.960415679124357
785,24.000000000000005
825,24.00000000000001
865,24.000000000000033
905,24.000000000000005
945,24.000000000000005
985,23.999999999999998
1025,24.000000000000019
1065,24.00000000000001
1105,24.79760830164464
1145,24.0
1185,24.000000000000005
1225,24.000000000000005
1265,24.000000000000026
1305,23.999999999999998
1345,24.000000000000044
1385,24.0
1425,23.99999999999999
1465,24.000000000000026
1505,23.99999999999999
2,1, 7,21, 0,21, 0.00,10.00,SummerDesignDay
8,15.63389147320404
10,201932069.3883512
1619,0.0
1656,278314572.5410621
2,1, 7,21, 0,21,10.00,20.00,SummerDesignDay
8,15.56810827419793
10,201932069.3883512
1619,0.0
1656,267211615.12641806
2,1, 7,21, 0,21,20.00,30.00,SummerDesignDay
8,15.502170882753524
10,201932069.3883512
1619,0.0
1656,255516674.78253747
2,1, 7,21, 0,21,30.00,40.00,SummerDesignDay
8,15.436068032613852
10,201932069.3883512
1619,0.0
1656,243747507.75353755
2,1, 7,21, 0,21,40.00,50.00,SummerDesignDay
8,15.369804371206009
10,201932069.3883512
1619,0.0
1656,232538042.3694117
2,1, 7,21, 0,21,50.00,60.00,SummerDesignDay