Program Version,EnergyPlus, Version 8.9.0-eba93e8e1b, YMD=2019.04.04 17:58
1,5,Environment Title[],Latitude[deg],Longitude[deg],Time Zone[],Elevation[m]
2,8,Day of Simulation[],Month[],Day of Month[],DST Indicator[1=yes 0=no],Hour[],StartMinute[],EndMinute[],DayType
3,5,Cumulative Day of Simulation[],Month[],Day of Month[],DST Indicator[1=yes 0=no],DayType  ! When Daily Report Variables Requested
4,2,Cumulative Days of Simulation[],Month[]  ! When Monthly Report Variables Requested
5,1,Cumulative Days of Simulation[] ! When Run Period Report Variables Requested
6,1,Calendar Year of Simulation[] ! When Annual Report Variables Requested
7,9,Environment,Site Outdoor Air Drybulb Temperature [C] !Monthly [Value,Min,Day,Hour,Minute,Max,Day,Hour,Minute]
8,1,Environment,Site Outdoor Air Wetbulb Temperature [C] !TimeStep
344,1,LAB - RESEARCH-SPACE FUNCTION ZN,Zone Air Temperature [C] !Hourly
345,7,LAB - RESEARCH-SPACE FUNCTION ZN,Zone Air Relative Humidity [%] !Daily [Value,Min,Hour,Minute,Max,Hour,Minute]
384,1,LIBRARY - CATALOGING-SPACE FUNCTION ZN,Zone Air Temperature [C] !Hourly
385,7,LIBRARY - CATALOGING-SPACE FUNCTION ZN,Zone Air Relative Humidity [%] !Daily [Value,Min,Hour,Minute,Max,Hour,Minute]
424,1,LIBRARY - READING-SPACE FUNCTION ZN,Zone Air Temperature [C] !Hourly
425,7,LIBRARY - READING-SPACE FUNCTION ZN,Zone Air Relative Humidity [%] !Daily [Value,Min,Hour,Minute,Max,Hour,Minute]
464,1,LIBRARY - STACKS-SPACE FUNCTION ZN,Zone Air Temperature [C] !Hourly
465,7,LIBRARY - STACKS-SPACE FUNCTION ZN,Zone Air Relative Humidity [%] !Daily [Value,Min,Hour,Minute,Max,Hour,Minute]
504,1,LOBBY - ELEVATOR-SPACE FUNCTION ZN,Zone Air Temperature [C] !Hourly
505,7,LOBBY - ELEVATOR-SPACE FUNCTION ZN,Zone Air Relative Humidity [%] !Daily [Value,Min,Hour,Minute,Max,Hour,Minute]
10,1,Electricity:Facility [J] !TimeStep
655,1,DistrictCooling:Facility [J] !TimeStep
618,1,DistrictHeating:Facility [J] !TimeStep
End of Data Dictionary
1,FORT MCMURRAY AP ANN CLG .4% CONDNS DB=>MWB,  56.65,-111.22,  -7.00, 369.10
2,1, 7,21, 0, 1, 0.00,10.00,SummerDesignDay
8,14.218136923962174
10,7700560.911206458
618,0.0
655,0.0
2,1, 7,21, 0, 1,10.00,20.00,SummerDesignDay
8,14.171982153293495
10,7700560.911206458
618,0.0
655,0.0
2,1, 7,21, 0, 1,20.00,30.00,SummerDesignDay
8,14.125744780286427
10,7700560.911206458
618,0.0
655,0.0
2,1, 7,21, 0, 1,30.00,40.00,SummerDesignDay
8,14.079436086331978
10,7700560.911206458
618,0.0
655,0.0
2,1, 7,21, 0, 1,40.00,50.00,SummerDesignDay
8,14.033050387896898
10,7700560.911206458
618,0.0
655,0.0
2,1, 7,21, 0, 1,50.00,60.00,SummerDesignDay
8,13.986581233564835
10,7700560.911206458
618,0.0
655,0.0
2,1, 7,21, 0, 1, 0.00,60.00,SummerDesignDay
344,20.42091539594566
384,20.81977643979174
424,20.896334611065293
464,21.04276216209687
504,19.273428644333995
2,1, 7,21, 0, 2, 0.00,10.00,SummerDesignDay
8,13.95555882260429
10,7700560.911206458
618,0.0
655,0.0
2,1, 7,21, 0, 2,10.00,20.00,SummerDesignDay
8,13.924507755336454
10,7700560.911206458
618,0.0
655,0.0
2,1, 7,21, 0, 2,20.00,30.00,SummerDesignDay
8,13.893416042989206
10,7700560.911206458
618,0.0
655,0.0
2,1, 7,21, 0, 2,30.00,40.00,SummerDesignDay
8,13.862289589689029
10,7700560.911206458
618,0.0
655,0.0
2,1, 7,21, 0, 2,40.00,50.00,SummerDesignDay
8,13.831134407608739
10,7700560.911206458
618,0.0
655,0.0
2,1, 7,21, 0, 2,50.00,60.00,SummerDesignDay
8,13.799938415548118
10,7700560.911206458
618,0.0
655,0.0
2,1, 7,21, 0, 2, 0.00,60.00,SummerDesignDay
344,19.854524203905347
384,20.333300648752773
424,20.41421009832601
464,20.55424670213517
504,18.7010056225004
2,1, 7,21, 0, 3, 0.00,10.00,SummerDesignDay
8,13.776521671948676
10,7700560.911206458
618,0.0
655,0.0
2,1, 7,21, 0, 3,10.00,20.00,SummerDesignDay
8,13.753085235778466
10,7700560.911206458
618,0.0
655,0.0
2,1, 7,21, 0, 3,20.00,30.00,SummerDesignDay
8,13.729636002354969
10,7700560.911206458
618,0.0
655,0.0
2,1, 7,21, 0, 3,30.00,40.00,SummerDesignDay
8,13.706147375533054
10,7700560.911206458
618,0.0
655,0.0
2,1, 7,21, 0, 3,40.00,50.00,SummerDesignDay
8,13.682651961920304
10,7700560.911206458
618,0.0
655,0.0
2,1, 7,21, 0, 3,50.00,60.00,SummerDesignDay
8,13.659136670643687
10,7700560.911206458
618,0.0
655,0.0
2,1, 7,21, 0, 3, 0.00,60.00,SummerDesignDay
344,19.44783919397459
384,19.966503461193914
424,20.051313413925219
464,20.186484403092768
504,18.292485737708899
2,1, 7,21, 0, 4, 0.00,10.00,SummerDesignDay
8,13.63560137410855
10,7700560.911206458
618,0.0
655,0.0
2,1, 7,21, 0, 4,10.00,20.00,SummerDesignDay
8,13.612040802606578
10,7700560.911206458
618,0.0
655,0.0
2,1, 7,21, 0, 4,20.00,30.00,SummerDesignDay
8,13.58846620506876
10,7700560.911206458
618,538326.0973141363
655,0.0
2,1, 7,21, 0, 4,30.00,40.00,SummerDesignDay
8,13.56487178447336
10,7700560.911206458
618,1089403.2789503707
655,0.0
2,1, 7,21, 0, 4,40.00,50.00,SummerDesignDay
8,13.541257354069103
10,7700560.911206458
618,1391091.2316257139
655,0.0
2,1, 7,21, 0, 4,50.00,60.00,SummerDesignDay
8,13.517617463812285
10,7700560.911206458
618,1805554.9342699398
655,0.0
2,1, 7,21, 0, 4, 0.00,60.00,SummerDesignDay
344,19.127096128628279
384,19.681497224567776
424,19.769040495252257
464,19.90102633224578
504,18.02471161235145
2,1, 7,21, 0, 5, 0.00,10.00,SummerDesignDay
8,13.50185415824011
10,7700560.911206458
618,2075041.8059770256
655,0.0
2,1, 7,21, 0, 5,10.00,20.00,SummerDesignDay
8,13.486076034032447
10,7700560.911206458
618,2334183.4075380859
655,0.0
2,1, 7,21, 0, 5,20.00,30.00,SummerDesignDay
8,13.470289340350983
10,7700560.911206458
618,2588605.7896641225
655,0.0
2,1, 7,21, 0, 5,30.00,40.00,SummerDesignDay
8,13.454493322631063
10,7700560.911206458
618,2839212.785692358
655,0.0
2,1, 7,21, 0, 5,40.00,50.00,SummerDesignDay
8,13.438688835118548
10,7700560.911206458
618,3087860.1457315257
655,0.0
2,1, 7,21, 0, 5,50.00,60.00,SummerDesignDay
8,13.422888173889437
10,7700560.911206458
618,3334686.0283490309
655,0.0
2,1, 7,21, 0, 5, 0.00,60.00,SummerDesignDay
344,18.85848509608697
384,19.448159488332136
424,19.53621474364775
464,19.667478282049577
504,18.00000500540944
2,1, 7,21, 0, 6, 0.00,10.00,SummerDesignDay
8,13.438688835118548
10,7700560.911206458
618,3129450.8490346719
655,0.0
2,1, 7,21, 0, 6,10.00,20.00,SummerDesignDay
8,13.454493322631063
10,7700560.911206458
618,2922734.667046717
655,0.0
2,1, 7,21, 0, 6,20.00,30.00,SummerDesignDay
8,13.470289340350983
10,7700560.911206458
618,2713677.662425882
655,0.0
2,1, 7,21, 0, 6,30.00,40.00,SummerDesignDay
8,13.486076034032447
10,7700560.911206458
618,2502165.0393617136
655,0.0
2,1, 7,21, 0, 6,40.00,50.00,SummerDesignDay
8,13.50185415824011
10,7700560.911206458
618,2289241.5012795587
655,0.0
2,1, 7,21, 0, 6,50.00,60.00,SummerDesignDay
8,13.517617463812285
10,7700560.911206458
618,2073480.7028355338
655,0.0
2,1, 7,21, 0, 6, 0.00,60.00,SummerDesignDay
344,18.748975217227977
384,19.31765586393133
424,19.40175441752155
464,19.536854737547836
504,18.000000000643558
2,1, 7,21, 0, 7, 0.00,10.00,SummerDesignDay
8,13.572736920571789
10,7700560.911206458
618,27405376.764531014
655,0.0
2,1, 7,21, 0, 7,10.00,20.00,SummerDesignDay
8,13.627748229152554
10,7700560.911206458
618,4175474.5780202795
655,0.0
2,1, 7,21, 0, 7,20.00,30.00,SummerDesignDay
8,13.682651961920304
10,7700560.911206458
618,14467886.591045373
655,0.0
2,1, 7,21, 0, 7,30.00,40.00,SummerDesignDay
8,13.737448093244995
10,7700560.911206458
618,4131084.529094036
655,0.0
2,1, 7,21, 0, 7,40.00,50.00,SummerDesignDay
8,13.792137011831216
10,7700560.911206458
618,4281052.622299482
655,0.0
2,1, 7,21, 0, 7,50.00,60.00,SummerDesignDay
8,13.846719282840333
10,7700560.911206458
618,3702473.425371016
655,0.0
2,1, 7,21, 0, 7, 0.00,60.00,SummerDesignDay
344,20.05504518518808
384,19.394413228296388
424,19.473892551177025
464,19.61359094035852
504,18.07477228247657
2,1, 7,21, 0, 8, 0.00,10.00,SummerDesignDay
8,13.978831900527043
10,18050474.773820629
618,90119903.4777706
655,0.0
2,1, 7,21, 0, 8,10.00,20.00,SummerDesignDay
8,14.110321014287419
10,18050474.773820629
618,11824883.751285097
655,0.0
2,1, 7,21, 0, 8,20.00,30.00,SummerDesignDay
8,14.241191509616986
10,18050474.773820629
618,36033590.46926663
655,0.0
2,1, 7,21, 0, 8,30.00,40.00,SummerDesignDay
8,14.371447531304272
10,18050474.773820629
618,2568651.845649004
655,0.0
2,1, 7,21, 0, 8,40.00,50.00,SummerDesignDay
8,14.501093766564925
10,18050474.773820629
618,1206704.1640370535
655,0.0
2,1, 7,21, 0, 8,50.00,60.00,SummerDesignDay
8,14.630134792273804
10,18050474.773820629
618,0.0
655,0.0
2,1, 7,21, 0, 8, 0.00,60.00,SummerDesignDay
344,22.120335894063186
384,20.140407550081254
424,20.1411854817124
464,20.198175684913953
504,20.06375323640752
2,1, 7,21, 0, 9, 0.00,10.00,SummerDesignDay
8,14.773641492809972
10,69625670.53578116
618,103439356.70663522
655,0.0
2,1, 7,21, 0, 9,10.00,20.00,SummerDesignDay
8,14.91640948124148
10,69625670.53578116
618,3686641.3573855508
655,4221818.676809808
2,1, 7,21, 0, 9,20.00,30.00,SummerDesignDay
8,15.05843890714102
10,69625670.53578116
618,5915887.271915402
655,16020085.79956014
2,1, 7,21, 0, 9,30.00,40.00,SummerDesignDay
8,15.199735893563798
10,69625670.53578116
618,0.0
655,25925349.07753536
2,1, 7,21, 0, 9,40.00,50.00,SummerDesignDay
8,15.340306256439395
10,69625670.53578116
618,0.0
655,33409376.194107199
2,1, 7,21, 0, 9,50.00,60.00,SummerDesignDay
8,15.48015101768072
10,69625670.53578116
618,0.0
655,40966686.13329461
2,1, 7,21, 0, 9, 0.00,60.00,SummerDesignDay
344,23.725901302754296
384,22.7345448299678
424,22.780968883548018
464,23.37390612237329
504,22.176598347941917
2,1, 7,21, 0,10, 0.00,10.00,SummerDesignDay
8,15.60467292907716
10,98110433.46926539
618,0.0
655,57038920.69370387
2,1, 7,21, 0,10,10.00,20.00,SummerDesignDay
8,15.72862731650033
10,98110433.46926539
618,0.0
655,74682350.77235034
2,1, 7,21, 0,10,20.00,30.00,SummerDesignDay
8,15.852017409284228
10,98110433.46926539
618,0.0
655,79674864.59251487
2,1, 7,21, 0,10,30.00,40.00,SummerDesignDay
8,15.974848118364367
10,98110433.46926539
618,0.0
655,85223927.33414623
2,1, 7,21, 0,10,40.00,50.00,SummerDesignDay
8,16.097123145563505
10,98110433.46926539
618,0.0
655,98825895.92304406
2,1, 7,21, 0,10,50.00,60.00,SummerDesignDay
8,16.218846351168599
10,98110433.46926539
618,0.0
655,103331249.76492328
2,1, 7,21, 0,10, 0.00,60.00,SummerDesignDay
344,23.999999945370975
384,23.923679738290656
424,23.94371934847842
464,23.999996441674158
504,23.60445766983004
2,1, 7,21, 0,11, 0.00,10.00,SummerDesignDay
8,16.325793027093189
10,98110433.46926539
618,0.0
655,115719743.47868158
2,1, 7,21, 0,11,10.00,20.00,SummerDesignDay
8,16.432322158488288
10,98110433.46926539
618,0.0
655,121470827.46901787
2,1, 7,21, 0,11,20.00,30.00,SummerDesignDay
8,16.538424180249178
10,98110433.46926539
618,0.0
655,126822023.05373505
2,1, 7,21, 0,11,30.00,40.00,SummerDesignDay
8,16.644108396469087
10,98110433.46926539
618,0.0
655,132015753.4105416
2,1, 7,21, 0,11,40.00,50.00,SummerDesignDay
8,16.749376736593655
10,98110433.46926539
618,0.0
655,137092774.987252
2,1, 7,21, 0,11,50.00,60.00,SummerDesignDay
8,16.854232613237156
10,98110433.46926539
618,0.0
655,142067099.91907887
2,1, 7,21, 0,11, 0.00,60.00,SummerDesignDay
344,24.00000000000001
384,23.9999999999693
424,23.99999999998634
464,24.000000000000005
504,23.99982688317289
2,1, 7,21, 0,12, 0.00,10.00,SummerDesignDay
8,16.92390823520069
10,98110433.46926539
618,0.0
655,145423298.12359003
2,1, 7,21, 0,12,10.00,20.00,SummerDesignDay
8,16.99340178950456
10,98110433.46926539
618,0.0
655,148713492.72048525
2,1, 7,21, 0,12,20.00,30.00,SummerDesignDay
8,17.06272006743463
10,98110433.46926539
618,0.0
655,151972054.03715749
2,1, 7,21, 0,12,30.00,40.00,SummerDesignDay
8,17.131853229172639
10,98110433.46926539
618,0.0
655,155187093.3784265
2,1, 7,21, 0,12,40.00,50.00,SummerDesignDay
8,17.200807172194087
10,98110433.46926539
618,0.0
655,158386966.29765816
2,1, 7,21, 0,12,50.00,60.00,SummerDesignDay
8,17.269582116758607
10,98110433.46926539
618,0.0
655,161576918.72838445
2,1, 7,21, 0,12, 0.00,60.00,SummerDesignDay
344,24.000000000000087
384,24.0
424,24.000000000000026
464,24.000000000000026
504,23.99999997447998
2,1, 7,21, 0,13, 0.00,10.00,SummerDesignDay
8,17.32447360221357
10,98110433.46926539
618,0.0
655,166393867.30914957
2,1, 7,21, 0,13,10.00,20.00,SummerDesignDay
8,17.379251291230806
10,98110433.46926539
618,0.0
655,169079792.80731119
2,1, 7,21, 0,13,20.00,30.00,SummerDesignDay
8,17.433921312061729
10,98110433.46926539
618,0.0
655,171632863.5670536
2,1, 7,21, 0,13,30.00,40.00,SummerDesignDay
8,17.488473222557489
10,98110433.46926539
618,0.0
655,174197462.51094169
2,1, 7,21, 0,13,40.00,50.00,SummerDesignDay
8,17.542913447755134
10,98110433.46926539
618,0.0
655,176754752.49184717
2,1, 7,21, 0,13,50.00,60.00,SummerDesignDay
8,17.59724609886134
10,98110433.46926539
618,0.0
655,179171121.80261145
2,1, 7,21, 0,13, 0.00,60.00,SummerDesignDay
344,24.000000000000019
384,24.000000000000019
424,24.00000000000003
464,24.00000000000004
504,23.99999999999631
2,1, 7,21, 0,14, 0.00,10.00,SummerDesignDay
8,17.6311450462694
10,98110433.46926539
618,0.0
655,180528443.6184736
2,1, 7,21, 0,14,10.00,20.00,SummerDesignDay
8,17.665000449016245
10,98110433.46926539
618,0.0
655,181878147.37847404
2,1, 7,21, 0,14,20.00,30.00,SummerDesignDay
8,17.698812743128934
10,98110433.46926539
618,0.0
655,183221771.50102557
2,1, 7,21, 0,14,30.00,40.00,SummerDesignDay
8,17.732582050940107
10,98110433.46926539
618,0.0
655,184556583.3002548
2,1, 7,21, 0,14,40.00,50.00,SummerDesignDay
8,17.766307345121004
10,98110433.46926539
618,0.0
655,185887935.34735076
2,1, 7,21, 0,14,50.00,60.00,SummerDesignDay
8,17.79999023167558
10,98110433.46926539
618,0.0
655,187218282.18987484
2,1, 7,21, 0,14, 0.00,60.00,SummerDesignDay
344,24.000000000000047
384,24.000000000000019
424,24.000000000000019
464,24.000000000000019
504,24.000000000000019
2,1, 7,21, 0,15, 0.00,10.00,SummerDesignDay
8,17.79999023167558
10,98110433.46926539
618,0.0
655,189078763.67128045
2,1, 7,21, 0,15,10.00,20.00,SummerDesignDay
8,17.79999023167558
10,98110433.46926539
618,0.0
655,189189825.67576692
2,1, 7,21, 0,15,20.00,30.00,SummerDesignDay
8,17.79999023167558
10,98110433.46926539
618,0.0
655,189198595.12212564
2,1, 7,21, 0,15,30.00,40.00,SummerDesignDay
8,17.79999023167558
10,98110433.46926539
618,0.0
655,189219152.6994696
2,1, 7,21, 0,15,40.00,50.00,SummerDesignDay
8,17.79999023167558
10,98110433.46926539
618,0.0
655,189239029.00535945
2,1, 7,21, 0,15,50.00,60.00,SummerDesignDay
8,17.79999023167558
10,98110433.46926539
618,0.0
655,189251376.72791524
2,1, 7,21, 0,15, 0.00,60.00,SummerDesignDay
344,24.00000000000007
384,24.000000000000019
424,24.000000000000033
464,23.999999999999987
504,23.99999999999999
2,1, 7,21, 0,16, 0.00,10.00,SummerDesignDay
8,17.759562446305357
10,98110433.46926539
618,0.0
655,187682461.37748478
2,1, 7,21, 0,16,10.00,20.00,SummerDesignDay
8,17.71907809634183
10,98110433.46926539
618,0.0
655,186113652.14764796
2,1, 7,21, 0,16,20.00,30.00,SummerDesignDay
8,17.67853788661001
10,98110433.46926539
618,0.0
655,184543941.984701
2,1, 7,21, 0,16,30.00,40.00,SummerDesignDay
8,17.63791796367351
10,98110433.46926539
618,0.0
655,182973028.88538767
2,1, 7,21, 0,16,40.00,50.00,SummerDesignDay
8,17.59724609886134
10,98110433.46926539
618,0.0
655,181401292.0642929
2,1, 7,21, 0,16,50.00,60.00,SummerDesignDay
8,17.55650676726033
10,98110433.46926539
618,0.0
655,179691834.8815317
2,1, 7,21, 0,16, 0.00,60.00,SummerDesignDay
344,23.999999999999984
384,24.000000000000026
424,24.0
464,24.000000000000015
504,24.000000000000005
2,1, 7,21, 0,17, 0.00,10.00,SummerDesignDay
8,17.50209486331892
10,98110433.46926539
618,0.0
655,179247585.7019651
2,1, 7,21, 0,17,10.00,20.00,SummerDesignDay
8,17.447570789624618
10,98110433.46926539
618,0.0
655,176888586.62259475
2,1, 7,21, 0,17,20.00,30.00,SummerDesignDay
8,17.392929544208135
10,98110433.46926539
618,0.0
655,174421716.71569935
2,1, 7,21, 0,17,30.00,40.00,SummerDesignDay
8,17.33818013976614
10,98110433.46926539
618,0.0
655,171962651.17189438
2,1, 7,21, 0,17,40.00,50.00,SummerDesignDay
8,17.283317298559309
10,98110433.46926539
618,0.0
655,169499905.12616933
2,1, 7,21, 0,17,50.00,60.00,SummerDesignDay
8,17.22833552437677
10,98110433.46926539
618,0.0
655,167027605.09760667
2,1, 7,21, 0,17, 0.00,60.00,SummerDesignDay
344,24.000000000000058
384,24.000000000000015
424,24.00000000000003
464,24.000000000000026
504,24.000000000000005
2,1, 7,21, 0,18, 0.00,10.00,SummerDesignDay
8,17.159453019160176
10,94570462.93062639
618,0.0
655,158503729.6170252
2,1, 7,21, 0,18,10.00,20.00,SummerDesignDay
8,17.090391773337136
10,94570462.93062639
618,0.0
655,154929843.1529264
2,1, 7,21, 0,18,20.00,30.00,SummerDesignDay
8,17.021151077964786
10,94570462.93062639
618,0.0
655,151749102.3449121
2,1, 7,21, 0,18,30.00,40.00,SummerDesignDay
8,16.951729380464653
10,94570462.93062639
618,0.0
655,148537922.67163927
2,1, 7,21, 0,18,40.00,50.00,SummerDesignDay
8,16.882126503829249
10,94570462.93062639
618,0.0
655,145347756.961921
2,1, 7,21, 0,18,50.00,60.00,SummerDesignDay
8,16.812341807494034
10,94570462.93062639
618,0.0
655,142167486.96823339
2,1, 7,21, 0,18, 0.00,60.00,SummerDesignDay
344,24.000000000000015
384,24.000000000000015
424,24.00000000000003
464,24.00000000000004
504,23.99999999999999
2,1, 7,21, 0,19, 0.00,10.00,SummerDesignDay
8,16.707321072823203
10,77950601.25064263
618,0.0
655,119411287.9039801
2,1, 7,21, 0,19,10.00,20.00,SummerDesignDay
8,16.601881826644556
10,77950601.25064263
618,0.0
655,113245038.428959
2,1, 7,21, 0,19,20.00,30.00,SummerDesignDay
8,16.496030555252849
10,77950601.25064263
618,0.0
655,108181101.17813826
2,1, 7,21, 0,19,30.00,40.00,SummerDesignDay
8,16.389760181474104
10,77950601.25064263
618,0.0
655,102937118.32951874
2,1, 7,21, 0,19,40.00,50.00,SummerDesignDay
8,16.283067654262039
10,77950601.25064263
618,0.0
655,97381457.46840951
2,1, 7,21, 0,19,50.00,60.00,SummerDesignDay
8,16.17595057957811
10,77950601.25064263
618,0.0
655,91919145.76089272
2,1, 7,21, 0,19, 0.00,60.00,SummerDesignDay
344,24.00000000000004
384,24.00000000000001
424,24.000000000000026
464,24.00000000000001
504,24.0
2,1, 7,21, 0,20, 0.00,10.00,SummerDesignDay
8,16.097123145563505
10,50287081.48220986
618,0.0
655,57938860.596174258
2,1, 7,21, 0,20,10.00,20.00,SummerDesignDay
8,16.018070242471564
10,50287081.48220986
618,0.0
655,50838648.65042126
2,1, 7,21, 0,20,20.00,30.00,SummerDesignDay
8,15.938779752340516
10,50287081.48220986
618,0.0
655,46114905.75605107
2,1, 7,21, 0,20,30.00,40.00,SummerDesignDay
8,15.85926152575189
10,50287081.48220986
618,0.0
655,41275071.784776028
2,1, 7,21, 0,20,40.00,50.00,SummerDesignDay
8,15.779503718563929
10,50287081.48220986
618,0.0
655,37232279.18414137
2,1, 7,21, 0,20,50.00,60.00,SummerDesignDay
8,15.699515709672767
10,50287081.48220986
618,0.0
655,34584823.10958684
2,1, 7,21, 0,20, 0.00,60.00,SummerDesignDay
344,24.00000000000001
384,24.00000000000001
424,24.000000000000005
464,24.000000000000015
504,23.981737151233678
2,1, 7,21, 0,21, 0.00,10.00,SummerDesignDay
8,15.63389147320404
10,44425880.26250272
618,0.0
655,28346182.57999707
2,1, 7,21, 0,21,10.00,20.00,SummerDesignDay
8,15.56810827419793
10,44425880.26250272
618,0.0
655,25778118.954098289
2,1, 7,21, 0,21,20.00,30.00,SummerDesignDay
8,15.502170882753524
10,44425880.26250272
618,0.0
655,23649884.25242547
2,1, 7,21, 0,21,30.00,40.00,SummerDesignDay
8,15.436068032613852
10,44425880.26250272
618,0.0
655,21522859.949749717
2,1, 7,21, 0,21,40.00,50.00,SummerDesignDay
8,15.369804371206009
10,44425880.26250272
618,0.0
655,19449258.458779579
2,1, 7,21, 0,21,50.00,60.00,SummerDesignDay
8,15.303384603594449
10,44425880.26250272
618,0.0
655,17410957.45272872
2,1, 7,21, 0,21, 0.00,60.00,SummerDesignDay
344,24.0
384,24.0
424,24.00000000000001
464,24.0
504,23.37045704289123
2,1, 7,21, 0,22, 0.00,10.00,SummerDesignDay
8,15.236797685071274
10,9470546.180525957
618,0.0
655,0.0
2,1, 7,21, 0,22,10.00,20.00,SummerDesignDay
8,15.170047891787942
10,9470546.180525957
618,0.0
655,0.0
2,1, 7,21, 0,22,20.00,30.00,SummerDesignDay
8,15.103134826860483
10,9470546.180525957
618,0.0
655,0.0
2,1, 7,21, 0,22,30.00,40.00,SummerDesignDay
8,15.036063385178485
10,9470546.180525957
618,0.0
655,0.0
2,1, 7,21, 0,22,40.00,50.00,SummerDesignDay
8,14.968821767219835
10,9470546.180525957
618,0.0
655,0.0
2,1, 7,21, 0,22,50.00,60.00,SummerDesignDay
8,14.90141525878635
10,9470546.180525957
618,0.0
655,0.0
2,1, 7,21, 0,22, 0.00,60.00,SummerDesignDay
344,23.207049740221277
384,23.216515412584316
424,23.25815637062952
464,23.3829937493949
504,21.897754302944205
2,1, 7,21, 0,23, 0.00,10.00,SummerDesignDay
8,14.848873673278373
10,9470546.180525957
618,0.0
655,0.0
2,1, 7,21, 0,23,10.00,20.00,SummerDesignDay
8,14.796237168136719
10,9470546.180525957
618,0.0
655,0.0
2,1, 7,21, 0,23,20.00,30.00,SummerDesignDay
8,14.743494321455645
10,9470546.180525957
618,0.0
655,0.0
2,1, 7,21, 0,23,30.00,40.00,SummerDesignDay
8,14.690649975253665
10,9470546.180525957
618,0.0
655,0.0
2,1, 7,21, 0,23,40.00,50.00,SummerDesignDay
8,14.637704281233117
10,9470546.180525957
618,0.0
655,0.0
2,1, 7,21, 0,23,50.00,60.00,SummerDesignDay
8,14.584656914839757
10,9470546.180525957
618,0.0
655,0.0
2,1, 7,21, 0,23, 0.00,60.00,SummerDesignDay
344,22.16229347951318
384,22.145322501323454
424,22.212887990323936
464,22.377339470684065
504,20.783554862647958
2,1, 7,21, 0,24, 0.00,10.00,SummerDesignDay
8,14.531507212058875
10,7700560.911206458
618,0.0
655,0.0
2,1, 7,21, 0,24,10.00,20.00,SummerDesignDay
8,14.47825496413355
10,7700560.911206458
618,0.0
655,0.0
2,1, 7,21, 0,24,20.00,30.00,SummerDesignDay
8,14.4249000133173
10,7700560.911206458
618,0.0
655,0.0
2,1, 7,21, 0,24,30.00,40.00,SummerDesignDay
8,14.371447531304272
10,7700560.911206458
618,0.0
655,0.0
2,1, 7,21, 0,24,40.00,50.00,SummerDesignDay
8,14.31788619902223
10,7700560.911206458
618,0.0
655,0.0
2,1, 7,21, 0,24,50.00,60.00,SummerDesignDay
8,14.264220970176066
10,7700560.911206458
618,0.0
655,0.0
2,1, 7,21, 0,24, 0.00,60.00,SummerDesignDay
344,21.202855811461239
384,21.418090051806347
424,21.490961995356867
464,21.645286621470093
504,19.990252486951488
3,1, 7,21, 0,SummerDesignDay
345,48.602049957532369,40.702375918865929,19,50,62.36644046477402, 6,20
385,49.483608860837829,42.87854259688317,12,60,60.180932492616957, 6,50
425,49.31536969342984,42.830561951451048,12,60,59.871519697231828, 6,50
465,48.154910451662548,41.57368397096077,21,60,59.3633118987817, 6,50
505,51.72590057182068,41.47128279241664,16,50,65.31140094276047, 6,50
4,1, 7
7,22.2505,16.5,21, 5,60,28.9,21,14,60
1,FORT MCMURRAY AP ANN HTG 99.6% CONDNS DB,  56.65,-111.22,  -7.00, 369.10
2,1, 1,21, 0, 1, 0.00,10.00,WinterDesignDay
8,-36.2
10,7700560.911206458
618,665578535.3766868
655,0.0
2,1, 1,21, 0, 1,10.00,20.00,WinterDesignDay
8,-36.2
10,7700560.911206458
618,665677700.0299425
655,0.0
2,1, 1,21, 0, 1,20.00,30.00,WinterDesignDay
8,-36.2
10,7700560.911206458
618,665746371.4798946
655,0.0
2,1, 1,21, 0, 1,30.00,40.00,WinterDesignDay
8,-36.2
10,7700560.911206458
618,665805714.9634134
655,0.0
2,1, 1,21, 0, 1,40.00,50.00,WinterDesignDay
8,-36.2
10,7700560.911206458
618,665859861.0390966
655,0.0
2,1, 1,21, 0, 1,50.00,60.00,WinterDesignDay
8,-36.2
10,7700560.911206458
618,665906781.6977562
655,0.0
2,1, 1,21, 0, 1, 0.00,60.00,WinterDesignDay
344,18.00000000000001
384,18.0
424,18.0
464,18.000000000000005
504,18.0
2,1, 1,21, 0, 2, 0.00,10.00,WinterDesignDay
8,-36.2
10,7700560.911206458
618,665946738.4090157
655,0.0
2,1, 1,21, 0, 2,10.00,20.00,WinterDesignDay
8,-36.2
10,7700560.911206458
618,665980609.2708848
655,0.0
2,1, 1,21, 0, 2,20.00,30.00,WinterDesignDay
8,-36.2
10,7700560.911206458
618,666009342.1110242
655,0.0
2,1, 1,21, 0, 2,30.00,40.00,WinterDesignDay
8,-36.2
10,7700560.911206458
618,666033790.316503
655,0.0
2,1, 1,21, 0, 2,40.00,50.00,WinterDesignDay
8,-36.2
10,7700560.911206458
618,666048706.4207604
655,0.0
2,1, 1,21, 0, 2,50.00,60.00,WinterDesignDay
8,-36.2
10,7700560.911206458
618,666061084.9604344
655,0.0
2,1, 1,21, 0, 2, 0.00,60.00,WinterDesignDay
344,18.000000000000005
384,18.000000000000005
424,18.000000000000005
464,18.000000000000005
504,18.0
2,1, 1,21, 0, 3, 0.00,10.00,WinterDesignDay
8,-36.2
10,7700560.911206458
618,666073671.3648405
655,0.0
2,1, 1,21, 0, 3,10.00,20.00,WinterDesignDay
8,-36.2
10,7700560.911206458
618,666085691.0951822
655,0.0
2,1, 1,21, 0, 3,20.00,30.00,WinterDesignDay
8,-36.2
10,7700560.911206458
618,666096948.2203913
655,0.0
2,1, 1,21, 0, 3,30.00,40.00,WinterDesignDay
8,-36.2
10,7700560.911206458
618,666107293.5408526
655,0.0
2,1, 1,21, 0, 3,40.00,50.00,WinterDesignDay
8,-36.2
10,7700560.911206458
618,666116753.8649435
655,0.0
2,1, 1,21, 0, 3,50.00,60.00,WinterDesignDay
8,-36.2
10,7700560.911206458
618,666125354.3161342
655,0.0
2,1, 1,21, 0, 3, 0.00,60.00,WinterDesignDay
344,18.00000000000001
384,18.0
424,18.000000000000005
464,18.000000000000008
504,18.000000000000005
2,1, 1,21, 0, 4, 0.00,10.00,WinterDesignDay
8,-36.2
10,7700560.911206458
618,666133168.381316
655,0.0
2,1, 1,21, 0, 4,10.00,20.00,WinterDesignDay
8,-36.2
10,7700560.911206458
618,666140259.0729003
655,0.0
2,1, 1,21, 0, 4,20.00,30.00,WinterDesignDay
8,-36.2
10,7700560.911206458
618,666146698.5678103
655,0.0
2,1, 1,21, 0, 4,30.00,40.00,WinterDesignDay
8,-36.2
10,7700560.911206458
618,666152549.098506
655,0.0
2,1, 1,21, 0, 4,40.00,50.00,WinterDesignDay
8,-36.2
10,7700560.911206458
618,666157870.9461194
655,0.0
2,1, 1,21, 0, 4,50.00,60.00,WinterDesignDay
8,-36.2
10,7700560.911206458
618,666162716.5588658
655,0.0
2,1, 1,21, 0, 4, 0.00,60.00,WinterDesignDay
344,18.0
384,18.0
424,18.0
464,18.000000000000005
504,18.0
2,1, 1,21, 0, 5, 0.00,10.00,WinterDesignDay
8,-36.2
10,7700560.911206458
618,666167134.02609
655,0.0
2,1, 1,21, 0, 5,10.00,20.00,WinterDesignDay
8,-36.2
10,7700560.911206458
618,666171165.5322257
655,0.0
2,1, 1,21, 0, 5,20.00,30.00,WinterDesignDay
8,-36.2
10,7700560.911206458
618,666174849.0203209
655,0.0
2,1, 1,21, 0, 5,30.00,40.00,WinterDesignDay
8,-36.2
10,7700560.911206458
618,666178218.0062347
655,0.0
2,1, 1,21, 0, 5,40.00,50.00,WinterDesignDay
8,-36.2
10,7700560.911206458
618,666181302.4734972
655,0.0
2,1, 1,21, 0, 5,50.00,60.00,WinterDesignDay
8,-36.2
10,7700560.911206458
618,666184129.0650678
655,0.0
2,1, 1,21, 0, 5, 0.00,60.00,WinterDesignDay
344,18.00000000000001
384,18.0
424,18.000000000000005
464,18.000000000000005
504,18.0
2,1, 1,21, 0, 6, 0.00,10.00,WinterDesignDay
8,-36.2
10,7700560.911206458
618,666186721.6218717
655,0.0
2,1, 1,21, 0, 6,10.00,20.00,WinterDesignDay
8,-36.2
10,7700560.911206458
618,666189101.4392997
655,0.0
2,1, 1,21, 0, 6,20.00,30.00,WinterDesignDay
8,-36.2
10,7700560.911206458
618,666191287.6213498
655,0.0
2,1, 1,21, 0, 6,30.00,40.00,WinterDesignDay
8,-36.2
10,7700560.911206458
618,666193297.3117695
655,0.0
2,1, 1,21, 0, 6,40.00,50.00,WinterDesignDay
8,-36.2
10,7700560.911206458
618,666195145.9415193
655,0.0
2,1, 1,21, 0, 6,50.00,60.00,WinterDesignDay
8,-36.2
10,7700560.911206458
618,666196847.4162014
655,0.0
2,1, 1,21, 0, 6, 0.00,60.00,WinterDesignDay
344,18.000000000000005
384,18.000000000000005
424,18.000000000000005
464,18.000000000000005
504,18.000000000000005
2,1, 1,21, 0, 7, 0.00,10.00,WinterDesignDay
8,-36.2
10,7700560.911206458
618,704799437.6267872
655,0.0
2,1, 1,21, 0, 7,10.00,20.00,WinterDesignDay
8,-36.2
10,7700560.911206458
618,652942894.785836
655,0.0
2,1, 1,21, 0, 7,20.00,30.00,WinterDesignDay
8,-36.2
10,7700560.911206458
618,684531845.6919828
655,0.0
2,1, 1,21, 0, 7,30.00,40.00,WinterDesignDay
8,-36.2
10,7700560.911206458
618,677320740.3115864
655,0.0
2,1, 1,21, 0, 7,40.00,50.00,WinterDesignDay
8,-36.2
10,7700560.911206458
618,677033767.0628455
655,0.0
2,1, 1,21, 0, 7,50.00,60.00,WinterDesignDay
8,-36.2
10,7700560.911206458
618,676833158.9619932
655,0.0
2,1, 1,21, 0, 7, 0.00,60.00,WinterDesignDay
344,19.99670137348462
384,18.000000000000005
424,18.0
464,18.000000000000008
504,18.0
2,1, 1,21, 0, 8, 0.00,10.00,WinterDesignDay
8,-36.2
10,18050474.773820629
618,817476839.2025244
655,0.0
2,1, 1,21, 0, 8,10.00,20.00,WinterDesignDay
8,-36.2
10,18050474.773820629
618,605293888.7610794
655,0.0
2,1, 1,21, 0, 8,20.00,30.00,WinterDesignDay
8,-36.2
10,18050474.773820629
618,738453627.9410739
655,0.0
2,1, 1,21, 0, 8,30.00,40.00,WinterDesignDay
8,-36.2
10,18050474.773820629
618,706334510.3589642
655,0.0
2,1, 1,21, 0, 8,40.00,50.00,WinterDesignDay
8,-36.2
10,18050474.773820629
618,705613983.2596979
655,0.0
2,1, 1,21, 0, 8,50.00,60.00,WinterDesignDay
8,-36.2
10,18050474.773820629
618,704794444.5927773
655,0.0
2,1, 1,21, 0, 8, 0.00,60.00,WinterDesignDay
344,21.997023143238839
384,20.007701417973313
424,20.00770172955477
464,20.007765729384855
504,19.997084542685227
2,1, 1,21, 0, 9, 0.00,10.00,WinterDesignDay
8,-36.2
10,69625670.53578116
618,770210138.3417554
655,0.0
2,1, 1,21, 0, 9,10.00,20.00,WinterDesignDay
8,-36.2
10,69625670.53578116
618,610951947.510356
655,0.0
2,1, 1,21, 0, 9,20.00,30.00,WinterDesignDay
8,-36.2
10,69625670.53578116
618,710992213.7202274
655,0.0
2,1, 1,21, 0, 9,30.00,40.00,WinterDesignDay
8,-36.2
10,69625670.53578116
618,685154149.5466576
655,0.0
2,1, 1,21, 0, 9,40.00,50.00,WinterDesignDay
8,-36.2
10,69625670.53578116
618,683819886.3723214
655,0.0
2,1, 1,21, 0, 9,50.00,60.00,WinterDesignDay
8,-36.2
10,69625670.53578116
618,682470569.7037315
655,0.0
2,1, 1,21, 0, 9, 0.00,60.00,WinterDesignDay
344,22.00000000000003
384,22.00769937965798
424,22.00776224779376
464,22.008687445770389
504,21.99691746979363
2,1, 1,21, 0,10, 0.00,10.00,WinterDesignDay
8,-36.2
10,98110433.46926539
618,660444475.4369463
655,0.0
2,1, 1,21, 0,10,10.00,20.00,WinterDesignDay
8,-36.2
10,98110433.46926539
618,655535754.0932541
655,0.0
2,1, 1,21, 0,10,20.00,30.00,WinterDesignDay
8,-36.2
10,98110433.46926539
618,654595251.2002183
655,0.0
2,1, 1,21, 0,10,30.00,40.00,WinterDesignDay
8,-36.2
10,98110433.46926539
618,653352858.1115728
655,0.0
2,1, 1,21, 0,10,40.00,50.00,WinterDesignDay
8,-36.2
10,98110433.46926539
618,652460008.1371938
655,0.0
2,1, 1,21, 0,10,50.00,60.00,WinterDesignDay
8,-36.2
10,98110433.46926539
618,651760642.0171752
655,0.0
2,1, 1,21, 0,10, 0.00,60.00,WinterDesignDay
344,22.000000000000044
384,22.00000000000001
424,22.00000000000001
464,22.000000000000015
504,21.999999999999944