Program Version,EnergyPlus, Version 8.9.0-eba93e8e1b, YMD=2019.03.26 18:13
1,5,Environment Title[],Latitude[deg],Longitude[deg],Time Zone[],Elevation[m]
2,8,Day of Simulation[],Month[],Day of Month[],DST Indicator[1=yes 0=no],Hour[],StartMinute[],EndMinute[],DayType
3,5,Cumulative Day of Simulation[],Month[],Day of Month[],DST Indicator[1=yes 0=no],DayType  ! When Daily Report Variables Requested
4,2,Cumulative Days of Simulation[],Month[]  ! When Monthly Report Variables Requested
5,1,Cumulative Days of Simulation[] ! When Run Period Report Variables Requested
6,1,Calendar Year of Simulation[] ! When Annual Report Variables Requested
7,9,Environment,Site Outdoor Air Drybulb Temperature [C] !Monthly [Value,Min,Day,Hour,Minute,Max,Day,Hour,Minute]
8,1,Environment,Site Outdoor Air Wetbulb Temperature [C] !TimeStep
927,1,ATRIUM (6 =< HEIGHT <= 12M)-SCH-A-SPACE FUNCTION ZN,Zone Air Temperature [C] !Hourly
928,7,ATRIUM (6 =< HEIGHT <= 12M)-SCH-A-SPACE FUNCTION ZN,Zone Air Relative Humidity [%] !Daily [Value,Min,Hour,Minute,Max,Hour,Minute]
967,1,ATRIUM (6 =< HEIGHT <= 12M)-SCH-B-SPACE FUNCTION ZN,Zone Air Temperature [C] !Hourly
968,7,ATRIUM (6 =< HEIGHT <= 12M)-SCH-B-SPACE FUNCTION ZN,Zone Air Relative Humidity [%] !Daily [Value,Min,Hour,Minute,Max,Hour,Minute]
1007,1,ATRIUM (6 =< HEIGHT <= 12M)-SCH-C-SPACE FUNCTION ZN,Zone Air Temperature [C] !Hourly
1008,7,ATRIUM (6 =< HEIGHT <= 12M)-SCH-C-SPACE FUNCTION ZN,Zone Air Relative Humidity [%] !Daily [Value,Min,Hour,Minute,Max,Hour,Minute]
1047,1,ATRIUM (6 =< HEIGHT <= 12M)-SCH-D-SPACE FUNCTION ZN,Zone Air Temperature [C] !Hourly
1048,7,ATRIUM (6 =< HEIGHT <= 12M)-SCH-D-SPACE FUNCTION ZN,Zone Air Relative Humidity [%] !Daily [Value,Min,Hour,Minute,Max,Hour,Minute]
1087,1,ATRIUM (6 =< HEIGHT <= 12M)-SCH-E-SPACE FUNCTION ZN,Zone Air Temperature [C] !Hourly
1088,7,ATRIUM (6 =< HEIGHT <= 12M)-SCH-E-SPACE FUNCTION ZN,Zone Air Relative Humidity [%] !Daily [Value,Min,Hour,Minute,Max,Hour,Minute]
1127,1,ATRIUM (6 =< HEIGHT <= 12M)-SCH-F-SPACE FUNCTION ZN,Zone Air Temperature [C] !Hourly
1128,7,ATRIUM (6 =< HEIGHT <= 12M)-SCH-F-SPACE FUNCTION ZN,Zone Air Relative Humidity [%] !Daily [Value,Min,Hour,Minute,Max,Hour,Minute]
1167,1,ATRIUM (6 =< HEIGHT <= 12M)-SCH-G-SPACE FUNCTION ZN,Zone Air Temperature [C] !Hourly
1168,7,ATRIUM (6 =< HEIGHT <= 12M)-SCH-G-SPACE FUNCTION ZN,Zone Air Relative Humidity [%] !Daily [Value,Min,Hour,Minute,Max,Hour,Minute]
1207,1,ATRIUM (6 =< HEIGHT <= 12M)-SCH-H-SPACE FUNCTION ZN,Zone Air Temperature [C] !Hourly
1208,7,ATRIUM (6 =< HEIGHT <= 12M)-SCH-H-SPACE FUNCTION ZN,Zone Air Relative Humidity [%] !Daily [Value,Min,Hour,Minute,Max,Hour,Minute]
1247,1,ATRIUM (6 =< HEIGHT <= 12M)-SCH-J-SPACE FUNCTION ZN,Zone Air Temperature [C] !Hourly
1248,7,ATRIUM (6 =< HEIGHT <= 12M)-SCH-J-SPACE FUNCTION ZN,Zone Air Relative Humidity [%] !Daily [Value,Min,Hour,Minute,Max,Hour,Minute]
1287,1,ATRIUM (6 =< HEIGHT <= 12M)-SCH-K-SPACE FUNCTION ZN,Zone Air Temperature [C] !Hourly
1288,7,ATRIUM (6 =< HEIGHT <= 12M)-SCH-K-SPACE FUNCTION ZN,Zone Air Relative Humidity [%] !Daily [Value,Min,Hour,Minute,Max,Hour,Minute]
1327,1,ATRIUM (HEIGHT < 6M)-SCH-H-SPACE FUNCTION ZN,Zone Air Temperature [C] !Hourly
1328,7,ATRIUM (HEIGHT < 6M)-SCH-H-SPACE FUNCTION ZN,Zone Air Relative Humidity [%] !Daily [Value,Min,Hour,Minute,Max,Hour,Minute]
1367,1,ATRIUM (HEIGHT < 6M)-SCH-J-SPACE FUNCTION ZN,Zone Air Temperature [C] !Hourly
1368,7,ATRIUM (HEIGHT < 6M)-SCH-J-SPACE FUNCTION ZN,Zone Air Relative Humidity [%] !Daily [Value,Min,Hour,Minute,Max,Hour,Minute]
1407,1,ATRIUM (HEIGHT < 6M)-SCH-K-SPACE FUNCTION ZN,Zone Air Temperature [C] !Hourly
1408,7,ATRIUM (HEIGHT < 6M)-SCH-K-SPACE FUNCTION ZN,Zone Air Relative Humidity [%] !Daily [Value,Min,Hour,Minute,Max,Hour,Minute]
1447,1,ATRIUM (HEIGHT > 12M)-SCH-A-SPACE FUNCTION ZN,Zone Air Temperature [C] !Hourly
1448,7,ATRIUM (HEIGHT > 12M)-SCH-A-SPACE FUNCTION ZN,Zone Air Relative Humidity [%] !Daily [Value,Min,Hour,Minute,Max,Hour,Minute]
1487,1,ATRIUM (HEIGHT > 12M)-SCH-B-SPACE FUNCTION ZN,Zone Air Temperature [C] !Hourly
1488,7,ATRIUM (HEIGHT > 12M)-SCH-B-SPACE FUNCTION ZN,Zone Air Relative Humidity [%] !Daily [Value,Min,Hour,Minute,Max,Hour,Minute]
1527,1,ATRIUM (HEIGHT > 12M)-SCH-C-SPACE FUNCTION ZN,Zone Air Temperature [C] !Hourly
1528,7,ATRIUM (HEIGHT > 12M)-SCH-C-SPACE FUNCTION ZN,Zone Air Relative Humidity [%] !Daily [Value,Min,Hour,Minute,Max,Hour,Minute]
1567,1,ATRIUM (HEIGHT > 12M)-SCH-D-SPACE FUNCTION ZN,Zone Air Temperature [C] !Hourly
1568,7,ATRIUM (HEIGHT > 12M)-SCH-D-SPACE FUNCTION ZN,Zone Air Relative Humidity [%] !Daily [Value,Min,Hour,Minute,Max,Hour,Minute]
1607,1,ATRIUM (HEIGHT > 12M)-SCH-E-SPACE FUNCTION ZN,Zone Air Temperature [C] !Hourly
1608,7,ATRIUM (HEIGHT > 12M)-SCH-E-SPACE FUNCTION ZN,Zone Air Relative Humidity [%] !Daily [Value,Min,Hour,Minute,Max,Hour,Minute]
1647,1,ATRIUM (HEIGHT > 12M)-SCH-F-SPACE FUNCTION ZN,Zone Air Temperature [C] !Hourly
1648,7,ATRIUM (HEIGHT > 12M)-SCH-F-SPACE FUNCTION ZN,Zone Air Relative Humidity [%] !Daily [Value,Min,Hour,Minute,Max,Hour,Minute]
1687,1,ATRIUM (HEIGHT > 12M)-SCH-G-SPACE FUNCTION ZN,Zone Air Temperature [C] !Hourly
1688,7,ATRIUM (HEIGHT > 12M)-SCH-G-SPACE FUNCTION ZN,Zone Air Relative Humidity [%] !Daily [Value,Min,Hour,Minute,Max,Hour,Minute]
10,1,Electricity:Facility [J] !TimeStep
1838,1,DistrictCooling:Facility [J] !TimeStep
1801,1,DistrictHeating:Facility [J] !TimeStep
End of Data Dictionary
1,FORT MCMURRAY AP ANN CLG .4% CONDNS DB=>MWB,  56.65,-111.22,  -7.00, 369.10
2,1, 7,21, 0, 1, 0.00,10.00,SummerDesignDay
8,14.218136923962174
10,32829526.625596007
1801,0.0
1838,107779588.62455207
2,1, 7,21, 0, 1,10.00,20.00,SummerDesignDay
8,14.171982153293495
10,32829526.625596007
1801,0.0
1838,105912342.57649906
2,1, 7,21, 0, 1,20.00,30.00,SummerDesignDay
8,14.125744780286427
10,32829526.625596007
1801,0.0
1838,104307306.24774216
2,1, 7,21, 0, 1,30.00,40.00,SummerDesignDay
8,14.079436086331978
10,32829526.625596007
1801,0.0
1838,102722801.99966562
2,1, 7,21, 0, 1,40.00,50.00,SummerDesignDay
8,14.033050387896898
10,32829526.625596007
1801,0.0
1838,101147447.66708537
2,1, 7,21, 0, 1,50.00,60.00,SummerDesignDay
8,13.986581233564835
10,32829526.625596007
1801,0.0
1838,99552036.22056456
2,1, 7,21, 0, 1, 0.00,60.00,SummerDesignDay
927,23.976421744771885
967,24.00000000000001
1007,23.362819070277099
1047,24.973084304085217
1087,25.20664711799894
1127,23.99999999999999
1167,24.000000000000019
1207,24.00000000000003
1247,24.000000000000015
1287,24.64551904535321
1327,23.999999999999998
1367,24.0
1407,24.181658268961326
1447,24.076260968383094
1487,24.0
1527,24.03738853295531
1567,24.946794790165183
1607,24.420981180502435
1647,24.00000000000001
1687,24.00000000000003
2,1, 7,21, 0, 2, 0.00,10.00,SummerDesignDay
8,13.95555882260429
10,23827868.9169677
1801,0.0
1838,77070309.5344269
2,1, 7,21, 0, 2,10.00,20.00,SummerDesignDay
8,13.924507755336454
10,23827868.9169677
1801,0.0
1838,75896636.58893307
2,1, 7,21, 0, 2,20.00,30.00,SummerDesignDay
8,13.893416042989206
10,23827868.9169677
1801,0.0
1838,74769646.77016083
2,1, 7,21, 0, 2,30.00,40.00,SummerDesignDay
8,13.862289589689029
10,23827868.9169677
1801,0.0
1838,73663887.21344681
2,1, 7,21, 0, 2,40.00,50.00,SummerDesignDay
8,13.831134407608739
10,23827868.9169677
1801,0.0
1838,72578465.19992207
2,1, 7,21, 0, 2,50.00,60.00,SummerDesignDay
8,13.799938415548118
10,23827868.9169677
1801,0.0
1838,71507007.1286485
2,1, 7,21, 0, 2, 0.00,60.00,SummerDesignDay
927,23.62173764540975
967,24.632360175213408
1007,23.08850369248626
1047,24.846071210035104
1087,25.026907089805463
1127,24.000000000000015
1167,23.99999999999999
1207,24.000000000000015
1247,24.00000000000001
1287,24.5234539187238
1327,24.00000000000001
1367,24.000000000000015
1407,23.870888872371766
1447,23.943447933602998
1487,24.550123266062348
1527,23.91630988154563
1567,24.834402295411804
1607,24.28945730007686
1647,24.000000000000015
1687,24.0
2,1, 7,21, 0, 3, 0.00,10.00,SummerDesignDay
8,13.776521671948676
10,18310364.464982343
1801,0.0
1838,70570517.52580394
2,1, 7,21, 0, 3,10.00,20.00,SummerDesignDay
8,13.753085235778466
10,18310364.464982343
1801,0.0
1838,69635207.18077514
2,1, 7,21, 0, 3,20.00,30.00,SummerDesignDay
8,13.729636002354969
10,18310364.464982343
1801,0.0
1838,68697645.29099147
2,1, 7,21, 0, 3,30.00,40.00,SummerDesignDay
8,13.706147375533054
10,18310364.464982343
1801,0.0
1838,67760411.60555902
2,1, 7,21, 0, 3,40.00,50.00,SummerDesignDay
8,13.682651961920304
10,18310364.464982343
1801,0.0
1838,66824860.78713751
2,1, 7,21, 0, 3,50.00,60.00,SummerDesignDay
8,13.659136670643687
10,18310364.464982343
1801,0.0
1838,65892077.581280309
2,1, 7,21, 0, 3, 0.00,60.00,SummerDesignDay
927,23.331114843198845
967,24.5874153149382
1007,22.86712996301543
1047,24.703275971105016
1087,24.874369049220097
1127,24.000000000000005
1167,24.000000000000015
1207,24.00000000000001
1247,24.00000000000001
1287,24.428091296862168
1327,24.00000000000001
1367,23.99999999999999
1407,23.626598149859665
1447,23.842690354848647
1487,24.37092638502489
1527,23.818823767067675
1567,24.71087600327456
1607,24.178819332820074
1647,24.0
1687,24.000000000000005
2,1, 7,21, 0, 4, 0.00,10.00,SummerDesignDay
8,13.63560137410855
10,17438285.147635979
1801,0.0
1838,64384494.32621046
2,1, 7,21, 0, 4,10.00,20.00,SummerDesignDay
8,13.612040802606578
10,17438285.147635979
1801,0.0
1838,63425523.762281749
2,1, 7,21, 0, 4,20.00,30.00,SummerDesignDay
8,13.58846620506876
10,17438285.147635979
1801,0.0
1838,62497086.75451002
2,1, 7,21, 0, 4,30.00,40.00,SummerDesignDay
8,13.56487178447336
10,17438285.147635979
1801,0.0
1838,61573959.22476006
2,1, 7,21, 0, 4,40.00,50.00,SummerDesignDay
8,13.541257354069103
10,17438285.147635979
1801,0.0
1838,60656582.19919007
2,1, 7,21, 0, 4,50.00,60.00,SummerDesignDay
8,13.517617463812285
10,17438285.147635979
1801,0.0
1838,59744290.23241833
2,1, 7,21, 0, 4, 0.00,60.00,SummerDesignDay
927,23.078451961946926
967,24.365956478022058
1007,22.67738522818583
1047,24.561788729656937
1087,24.733030274864715
1127,24.00000000000001
1167,24.000000000000015
1207,24.000000000000005
1247,24.0
1287,24.343018646482624
1327,24.00000000000001
1367,24.0
1407,23.415738633236498
1447,23.753783142986408
1487,24.08135076407476
1527,23.730249599431898
1567,24.594039935516084
1607,24.07736696116524
1647,24.00000000000001
1687,24.00000000000001
2,1, 7,21, 0, 5, 0.00,10.00,SummerDesignDay
8,13.50185415824011
10,17438285.147635979
1801,0.0
1838,58964793.931892428
2,1, 7,21, 0, 5,10.00,20.00,SummerDesignDay
8,13.486076034032447
10,17438285.147635979
1801,0.0
1838,61075487.23394376
2,1, 7,21, 0, 5,20.00,30.00,SummerDesignDay
8,13.470289340350983
10,17438285.147635979
1801,0.0
1838,63274968.82439208
2,1, 7,21, 0, 5,30.00,40.00,SummerDesignDay
8,13.454493322631063
10,17438285.147635979
1801,0.0
1838,65698920.27756055
2,1, 7,21, 0, 5,40.00,50.00,SummerDesignDay
8,13.438688835118548
10,17438285.147635979
1801,0.0
1838,68341549.89764726
2,1, 7,21, 0, 5,50.00,60.00,SummerDesignDay
8,13.422888173889437
10,17438285.147635979
1801,0.0
1838,70814637.13433342
2,1, 7,21, 0, 5, 0.00,60.00,SummerDesignDay
927,22.919398064655849
967,24.237932346261485
1007,22.557667808327556
1047,24.43101249673912
1087,24.714120915852339
1127,24.0
1167,24.00000000000001
1207,24.00000000000001
1247,24.0
1287,24.26098756770639
1327,24.0
1367,24.00000000000001
1407,23.243941430779747
1447,23.670261528950847
1487,23.969702234268288
1527,23.647172265334317
1567,24.48949747971223
1607,24.048742491217415
1647,24.000000000000005
1687,24.000000000000005
2,1, 7,21, 0, 6, 0.00,10.00,SummerDesignDay
8,13.438688835118548
10,18478162.924417557
1801,0.0
1838,74255086.75579718
2,1, 7,21, 0, 6,10.00,20.00,SummerDesignDay
8,13.454493322631063
10,18478162.924417557
1801,0.0
1838,76848766.10723724
2,1, 7,21, 0, 6,20.00,30.00,SummerDesignDay
8,13.470289340350983
10,18478162.924417557
1801,0.0
1838,79281905.41018704
2,1, 7,21, 0, 6,30.00,40.00,SummerDesignDay
8,13.486076034032447
10,18478162.924417557
1801,0.0
1838,81619461.29406895
2,1, 7,21, 0, 6,40.00,50.00,SummerDesignDay
8,13.50185415824011
10,18478162.924417557
1801,0.0
1838,83874947.86619793
2,1, 7,21, 0, 6,50.00,60.00,SummerDesignDay
8,13.517617463812285
10,18478162.924417557
1801,0.0
1838,86116625.19960556
2,1, 7,21, 0, 6, 0.00,60.00,SummerDesignDay
927,23.064884630062964
967,24.151405917228229
1007,22.699908795588255
1047,24.354751028274597
1087,25.163700265906614
1127,24.000000000000015
1167,24.000000000000005
1207,24.00000000000003
1247,24.0
1287,24.31189949807575
1327,23.999999999999998
1367,24.000000000000015
1407,23.374576554185326
1447,23.618760810388513
1487,23.900555937659595
1527,23.591113070317634
1567,24.435256405513614
1607,24.123683017864349
1647,24.00000000000001
1687,24.0
2,1, 7,21, 0, 7, 0.00,10.00,SummerDesignDay
8,13.572736920571789
10,21756366.36163298
1801,0.0
1838,91142331.07998297
2,1, 7,21, 0, 7,10.00,20.00,SummerDesignDay
8,13.627748229152554
10,21756366.36163298
1801,0.0
1838,94336870.39797744
2,1, 7,21, 0, 7,20.00,30.00,SummerDesignDay
8,13.682651961920304
10,21756366.36163298
1801,0.0
1838,97552859.9040722
2,1, 7,21, 0, 7,30.00,40.00,SummerDesignDay
8,13.737448093244995
10,21756366.36163298
1801,0.0
1838,100885420.30132652
2,1, 7,21, 0, 7,40.00,50.00,SummerDesignDay
8,13.792137011831216
10,21756366.36163298
1801,0.0
1838,104311980.99615905
2,1, 7,21, 0, 7,50.00,60.00,SummerDesignDay
8,13.846719282840333
10,21756366.36163298
1801,0.0
1838,107608558.17752795
2,1, 7,21, 0, 7, 0.00,60.00,SummerDesignDay
927,23.533251510416176
967,24.13970265761189
1007,23.15038560942703
1047,24.360273449115387
1087,25.770641368463705
1127,23.999999999999998
1167,24.000000000000005
1207,24.00000000000003
1247,24.000000000000005
1287,24.79584968339138
1327,24.000000000000047
1367,24.000000000000015
1407,24.174230871704919
1447,23.633572463752804
1487,23.893913448223
1527,23.59529161878635
1567,24.44959903150235
1607,24.095546140588309
1647,24.0
1687,24.000000000000026
2,1, 7,21, 0, 8, 0.00,10.00,SummerDesignDay
8,13.978831900527043
10,32236511.18925535
1801,0.0
1838,165945635.08212874
2,1, 7,21, 0, 8,10.00,20.00,SummerDesignDay
8,14.110321014287419
10,32236511.18925535
1801,0.0
1838,130520392.62317507
2,1, 7,21, 0, 8,20.00,30.00,SummerDesignDay
8,14.241191509616986
10,32236511.18925535
1801,0.0
1838,166865422.55733208
2,1, 7,21, 0, 8,30.00,40.00,SummerDesignDay
8,14.371447531304272
10,32236511.18925535
1801,0.0
1838,154108152.6503248
2,1, 7,21, 0, 8,40.00,50.00,SummerDesignDay
8,14.501093766564925
10,32236511.18925535
1801,0.0
1838,168387357.7318002
2,1, 7,21, 0, 8,50.00,60.00,SummerDesignDay
8,14.630134792273804
10,32236511.18925535
1801,0.0
1838,172642503.5358142
2,1, 7,21, 0, 8, 0.00,60.00,SummerDesignDay
927,23.992813418363004
967,24.235308113411887
1007,23.840743848235947
1047,23.976854474627939
1087,23.926042100472388
1127,24.0
1167,24.00000000000001
1207,24.000000000000019
1247,23.999999999999998
1287,25.5350497696746
1327,24.00000000000001
1367,24.000000000000015
1407,25.287626106822747
1447,23.90546700198963
1487,23.979634109940418
1527,23.692943022379415
1567,23.971618300688744
1607,23.993789088790867
1647,24.000000000000005
1687,24.00000000000001
2,1, 7,21, 0, 9, 0.00,10.00,SummerDesignDay
8,14.773641492809972
10,55413068.49148702
1801,0.0
1838,207176414.31195645
2,1, 7,21, 0, 9,10.00,20.00,SummerDesignDay
8,14.91640948124148
10,55413068.49148702
1801,0.0
1838,209956662.39518876
2,1, 7,21, 0, 9,20.00,30.00,SummerDesignDay
8,15.05843890714102
10,55413068.49148702
1801,0.0
1838,221965916.67636136
2,1, 7,21, 0, 9,30.00,40.00,SummerDesignDay
8,15.199735893563798
10,55413068.49148702
1801,0.0
1838,234790343.21079145
2,1, 7,21, 0, 9,40.00,50.00,SummerDesignDay
8,15.340306256439395
10,55413068.49148702
1801,0.0
1838,240764689.96019725
2,1, 7,21, 0, 9,50.00,60.00,SummerDesignDay
8,15.48015101768072
10,55413068.49148702
1801,0.0
1838,249495422.343962
2,1, 7,21, 0, 9, 0.00,60.00,SummerDesignDay
927,23.999999999999948
967,23.967875494068623
1007,23.999999994590956
1047,23.999999999999998
1087,23.999999999982504
1127,24.000000000000005
1167,24.000000000000005
1207,24.00000000000003
1247,24.00000000000001
1287,25.817664685349148
1327,24.000000000000026
1367,24.00000000000003
1407,26.053408223928924
1447,23.99999999772716
1487,23.999433553762775
1527,23.98577836655254
1567,23.99999999999999
1607,24.000000000000015
1647,24.00000000000001
1687,24.00000000000001
2,1, 7,21, 0,10, 0.00,10.00,SummerDesignDay
8,15.60467292907716
10,73494749.87828535
1801,0.0
1838,287792481.5119773
2,1, 7,21, 0,10,10.00,20.00,SummerDesignDay
8,15.72862731650033
10,73494749.87828535
1801,0.0
1838,296039786.25183257
2,1, 7,21, 0,10,20.00,30.00,SummerDesignDay
8,15.852017409284228
10,73494749.87828535
1801,0.0
1838,303734492.89327928
2,1, 7,21, 0,10,30.00,40.00,SummerDesignDay
8,15.974848118364367
10,73494749.87828535
1801,0.0
1838,311184499.39386799
2,1, 7,21, 0,10,40.00,50.00,SummerDesignDay
8,16.097123145563505
10,73494749.87828535
1801,0.0
1838,318124256.52707418
2,1, 7,21, 0,10,50.00,60.00,SummerDesignDay
8,16.218846351168599
10,73494749.87828535
1801,0.0
1838,324425726.547394
2,1, 7,21, 0,10, 0.00,60.00,SummerDesignDay
927,24.000000000000019
967,23.99999999986503
1007,24.000000000000044
1047,24.000000000000019
1087,24.000000000000015
1127,24.000000000000005
1167,24.00000000000001
1207,24.0
1247,24.000000000000019
1287,25.63939155545496
1327,24.000000000000005
1367,24.000000000000015
1407,26.446264838921555
1447,24.00000000000001
1487,23.999999999999859
1527,23.99999999999935
1567,24.000000000000033
1607,24.000000000000019
1647,24.000000000000005
1687,24.000000000000005
2,1, 7,21, 0,11, 0.00,10.00,SummerDesignDay
8,16.325793027093189
10,78182452.87203089
1801,0.0
1838,342191677.55438598
2,1, 7,21, 0,11,10.00,20.00,SummerDesignDay
8,16.432322158488288
10,78182452.87203089
1801,0.0
1838,348245755.402102
2,1, 7,21, 0,11,20.00,30.00,SummerDesignDay
8,16.538424180249178
10,78182452.87203089
1801,0.0
1838,353887896.21208468
2,1, 7,21, 0,11,30.00,40.00,SummerDesignDay
8,16.644108396469087
10,78182452.87203089
1801,0.0
1838,359319565.63248679
2,1, 7,21, 0,11,40.00,50.00,SummerDesignDay
8,16.749376736593655
10,78182452.87203089
1801,0.0
1838,364487740.64509168
2,1, 7,21, 0,11,50.00,60.00,SummerDesignDay
8,16.854232613237156
10,78182452.87203089
1801,0.0
1838,369434586.47266456
2,1, 7,21, 0,11, 0.00,60.00,SummerDesignDay
927,23.999999999999998
967,24.000000000000015
1007,24.000000000000015
1047,24.00000000000003
1087,24.00000000000001
1127,24.00000000000001
1167,24.0
1207,24.000000000000044
1247,24.00000000000001
1287,25.693273085694007
1327,24.0
1367,24.000000000000033
1407,26.983974126205266
1447,24.00000000000001
1487,24.00000000000001
1527,24.000000000000005
1567,24.000000000000026
1607,24.00000000000001
1647,24.000000000000015
1687,24.0
2,1, 7,21, 0,12, 0.00,10.00,SummerDesignDay
8,16.92390823520069
10,79830539.1046191
1801,0.0
1838,379043119.02322486
2,1, 7,21, 0,12,10.00,20.00,SummerDesignDay
8,16.99340178950456
10,79830539.1046191
1801,0.0
1838,383005270.7064736
2,1, 7,21, 0,12,20.00,30.00,SummerDesignDay
8,17.06272006743463
10,79830539.1046191
1801,0.0
1838,386947285.03393247
2,1, 7,21, 0,12,30.00,40.00,SummerDesignDay
8,17.131853229172639
10,79830539.1046191
1801,0.0
1838,390913090.9628154
2,1, 7,21, 0,12,40.00,50.00,SummerDesignDay
8,17.200807172194087
10,79830539.1046191
1801,0.0
1838,394906374.39120957
2,1, 7,21, 0,12,50.00,60.00,SummerDesignDay
8,17.269582116758607
10,79830539.1046191
1801,0.0
1838,398831344.15716126
2,1, 7,21, 0,12, 0.00,60.00,SummerDesignDay
927,24.000000000000019
967,24.00000000000001
1007,24.000000000000047
1047,24.000000000000015
1087,24.000000000000033
1127,24.000000000000005
1167,24.000000000000019
1207,23.99999999999999
1247,24.000000000000005
1287,25.899163549745397
1327,23.999999999999984
1367,24.000000000000033
1407,27.68223915971681
1447,24.00000000000003
1487,24.00000000000001
1527,24.000000000000005
1567,24.00000000000001
1607,24.000000000000015
1647,24.00000000000001
1687,24.00000000000003
2,1, 7,21, 0,13, 0.00,10.00,SummerDesignDay
8,17.32447360221357
10,78157168.68654926
1801,0.0
1838,402062759.19543877
2,1, 7,21, 0,13,10.00,20.00,SummerDesignDay
8,17.379251291230806
10,78157168.68654926
1801,0.0
1838,405036888.1917507
2,1, 7,21, 0,13,20.00,30.00,SummerDesignDay
8,17.433921312061729
10,78157168.68654926
1801,0.0
1838,407892172.7120615
2,1, 7,21, 0,13,30.00,40.00,SummerDesignDay
8,17.488473222557489
10,78157168.68654926
1801,0.0
1838,410797204.1945703
2,1, 7,21, 0,13,40.00,50.00,SummerDesignDay
8,17.542913447755134
10,78157168.68654926
1801,0.0
1838,413613769.95988646
2,1, 7,21, 0,13,50.00,60.00,SummerDesignDay
8,17.59724609886134
10,78157168.68654926
1801,0.0
1838,416231647.29806628
2,1, 7,21, 0,13, 0.00,60.00,SummerDesignDay
927,23.99999999999997
967,24.000000000000026
1007,24.000000000000047
1047,24.000000000000019
1087,24.000000000000026
1127,24.000000000000015
1167,24.00000000000001
1207,24.000000000000019
1247,24.000000000000005
1287,26.058438033658317
1327,24.00000000000004
1367,24.000000000000033
1407,28.260515215073644
1447,24.0
1487,24.000000000000005
1527,24.000000000000015
1567,24.000000000000019
1607,24.00000000000001
1647,24.000000000000005
1687,24.00000000000001
2,1, 7,21, 0,14, 0.00,10.00,SummerDesignDay
8,17.6311450462694
10,78157168.68654926
1801,0.0
1838,416141681.4760919
2,1, 7,21, 0,14,10.00,20.00,SummerDesignDay
8,17.665000449016245
10,78157168.68654926
1801,0.0
1838,417801509.6891547
2,1, 7,21, 0,14,20.00,30.00,SummerDesignDay
8,17.698812743128934
10,78157168.68654926
1801,0.0
1838,419520261.23770627
2,1, 7,21, 0,14,30.00,40.00,SummerDesignDay
8,17.732582050940107
10,78157168.68654926
1801,0.0
1838,421307617.6879808
2,1, 7,21, 0,14,40.00,50.00,SummerDesignDay
8,17.766307345121004
10,78157168.68654926
1801,0.0
1838,423203334.0357275
2,1, 7,21, 0,14,50.00,60.00,SummerDesignDay
8,17.79999023167558
10,78157168.68654926
1801,0.0
1838,425191295.38087376
2,1, 7,21, 0,14, 0.00,60.00,SummerDesignDay
927,24.000000000000015
967,24.000000000000005
1007,23.999999999999969
1047,23.99999999999997
1087,24.000000000000015
1127,24.000000000000005
1167,24.000000000000033
1207,24.0
1247,24.000000000000015
1287,26.185168038649694
1327,24.000000000000058
1367,23.999999999999987
1407,28.699340936064755
1447,24.0
1487,24.00000000000001
1527,24.000000000000005
1567,24.00000000000004
1607,24.000000000000019
1647,24.00000000000001
1687,24.000000000000015
2,1, 7,21, 0,15, 0.00,10.00,SummerDesignDay
8,17.79999023167558
10,78719873.11121461
1801,0.0
1838,422378215.38644328
2,1, 7,21, 0,15,10.00,20.00,SummerDesignDay
8,17.79999023167558
10,78719873.11121461
1801,0.0
1838,423721723.7391429
2,1, 7,21, 0,15,20.00,30.00,SummerDesignDay
8,17.79999023167558
10,78719873.11121461
1801,0.0
1838,425019062.7128219
2,1, 7,21, 0,15,30.00,40.00,SummerDesignDay
8,17.79999023167558
10,78719873.11121461
1801,0.0
1838,426126688.83618018
2,1, 7,21, 0,15,40.00,50.00,SummerDesignDay
8,17.79999023167558
10,78719873.11121461
1801,0.0
1838,426914792.4291553
2,1, 7,21, 0,15,50.00,60.00,SummerDesignDay
8,17.79999023167558
10,78719873.11121461
1801,0.0
1838,427347908.89454016
2,1, 7,21, 0,15, 0.00,60.00,SummerDesignDay
927,24.000000000000026
967,23.999999999999987
1007,24.0
1047,23.999999999999987
1087,24.000000000000019
1127,24.000000000000005
1167,24.000000000000015
1207,24.000000000000019
1247,24.0
1287,26.267948395586417
1327,23.99999999999999
1367,24.00000000000004
1407,28.960696250994933
1447,24.000000000000019
1487,24.000000000000005
1527,24.000000000000015
1567,24.000000000000019
1607,24.000000000000026
1647,24.0
1687,24.0
2,1, 7,21, 0,16, 0.00,10.00,SummerDesignDay
8,17.759562446305357
10,78719873.11121461
1801,0.0
1838,426453071.7046073
2,1, 7,21, 0,16,10.00,20.00,SummerDesignDay
8,17.71907809634183
10,78719873.11121461
1801,0.0
1838,425102856.03427907
2,1, 7,21, 0,16,20.00,30.00,SummerDesignDay
8,17.67853788661001
10,78719873.11121461
1801,0.0
1838,423432812.1469883
2,1, 7,21, 0,16,30.00,40.00,SummerDesignDay
8,17.63791796367351
10,78719873.11121461
1801,0.0
1838,421396696.63909128
2,1, 7,21, 0,16,40.00,50.00,SummerDesignDay
8,17.59724609886134
10,78719873.11121461
1801,0.0
1838,418983083.1833003
2,1, 7,21, 0,16,50.00,60.00,SummerDesignDay
8,17.55650676726033
10,78719873.11121461
1801,0.0
1838,416244910.881638
2,1, 7,21, 0,16, 0.00,60.00,SummerDesignDay
927,24.000000000000055
967,24.000000000000005
1007,24.000000000000033
1047,24.000000000000033
1087,24.000000000000026
1127,24.00000000000001
1167,23.999999999999984
1207,24.00000000000003
1247,24.00000000000001
1287,26.285361820820826
1327,24.000000000000033
1367,24.000000000000033
1407,28.987899406137634
1447,24.000000000000019
1487,24.000000000000015
1527,24.0
1567,24.0
1607,24.000000000000015
1647,24.00000000000001
1687,24.0
2,1, 7,21, 0,17, 0.00,10.00,SummerDesignDay
8,17.50209486331892
10,76228217.9187964
1801,0.0
1838,408145507.62520119
2,1, 7,21, 0,17,10.00,20.00,SummerDesignDay
8,17.447570789624618
10,76228217.9187964
1801,0.0
1838,404202077.19623246
2,1, 7,21, 0,17,20.00,30.00,SummerDesignDay
8,17.392929544208135
10,76228217.9187964
1801,0.0
1838,400094806.76449486
2,1, 7,21, 0,17,30.00,40.00,SummerDesignDay
8,17.33818013976614
10,76228217.9187964
1801,0.0
1838,395832231.2473192
2,1, 7,21, 0,17,40.00,50.00,SummerDesignDay
8,17.283317298559309
10,76228217.9187964
1801,0.0
1838,391440702.74055817
2,1, 7,21, 0,17,50.00,60.00,SummerDesignDay
8,17.22833552437677
10,76228217.9187964
1801,0.0
1838,386919065.4608447
2,1, 7,21, 0,17, 0.00,60.00,SummerDesignDay
927,24.00000000000004
967,24.000000000000015
1007,24.0
1047,24.000000000000026
1087,24.000000000000005
1127,24.000000000000015
1167,23.999999999999987
1207,24.00000000000004
1247,24.000000000000005
1287,26.653984888821765
1327,24.000000000000015
1367,24.000000000000055
1407,29.169761819197164
1447,24.000000000000015
1487,24.0
1527,24.00000000000001
1567,24.000000000000044
1607,24.00000000000003
1647,24.000000000000005
1687,24.00000000000003
2,1, 7,21, 0,18, 0.00,10.00,SummerDesignDay
8,17.159453019160176
10,71365326.28083842
1801,0.0
1838,373692985.0306905
2,1, 7,21, 0,18,10.00,20.00,SummerDesignDay
8,17.090391773337136
10,71365326.28083842
1801,0.0
1838,367848773.12753418
2,1, 7,21, 0,18,20.00,30.00,SummerDesignDay
8,17.021151077964786
10,71365326.28083842
1801,0.0
1838,361995573.8069013
2,1, 7,21, 0,18,30.00,40.00,SummerDesignDay
8,16.951729380464653
10,71365326.28083842
1801,0.0
1838,356182496.3708098
2,1, 7,21, 0,18,40.00,50.00,SummerDesignDay
8,16.882126503829249
10,71365326.28083842
1801,0.0
1838,350536275.974181
2,1, 7,21, 0,18,50.00,60.00,SummerDesignDay
8,16.812341807494034
10,71365326.28083842
1801,0.0
1838,344951357.9474352
2,1, 7,21, 0,18, 0.00,60.00,SummerDesignDay
927,23.999999999999984
967,24.000000000000019
1007,24.000000000000019
1047,24.000000000000015
1087,24.00000000000001
1127,24.000000000000019
1167,24.00000000000004
1207,23.99999999999999
1247,24.0
1287,26.89876948138883
1327,24.000000000000047
1367,23.999999999999984
1407,29.183479605992557
1447,24.000000000000019
1487,24.00000000000001
1527,24.000000000000019
1567,24.00000000000001
1607,24.0
1647,24.0
1687,24.000000000000019
2,1, 7,21, 0,19, 0.00,10.00,SummerDesignDay
8,16.707321072823203
10,65576223.15988123
1801,0.0
1838,323702028.5866824
2,1, 7,21, 0,19,10.00,20.00,SummerDesignDay
8,16.601881826644556
10,65576223.15988123
1801,0.0
1838,316461484.6467526
2,1, 7,21, 0,19,20.00,30.00,SummerDesignDay
8,16.496030555252849
10,65576223.15988123
1801,0.0
1838,309799973.3581324
2,1, 7,21, 0,19,30.00,40.00,SummerDesignDay
8,16.389760181474104
10,65576223.15988123
1801,0.0
1838,303313098.9621017
2,1, 7,21, 0,19,40.00,50.00,SummerDesignDay
8,16.283067654262039
10,65576223.15988123
1801,0.0
1838,297042936.47989407
2,1, 7,21, 0,19,50.00,60.00,SummerDesignDay
8,16.17595057957811
10,65576223.15988123
1801,0.0
1838,290921637.1732299
2,1, 7,21, 0,19, 0.00,60.00,SummerDesignDay
927,23.99999999999999
967,24.000000000000026
1007,24.000000000000015
1047,24.000000000000026
1087,24.000000000000033
1127,24.000000000000005
1167,24.000000000000015
1207,24.00000000000001
1247,23.99999999999999
1287,26.64864786070636
1327,24.000000000000033
1367,24.00000000000001
1407,28.548724119096506
1447,24.00000000000001
1487,24.000000000000019
1527,24.00000000000001
1567,24.00000000000003
1607,23.999999999999998
1647,24.000000000000005
1687,23.99999999999999
2,1, 7,21, 0,20, 0.00,10.00,SummerDesignDay
8,16.097123145563505
10,66670233.10231562
1801,0.0
1838,263277759.6727528
2,1, 7,21, 0,20,10.00,20.00,SummerDesignDay
8,16.018070242471564
10,66670233.10231562
1801,0.0
1838,258523381.19519363
2,1, 7,21, 0,20,20.00,30.00,SummerDesignDay
8,15.938779752340516
10,66670233.10231562
1801,0.0
1838,253554693.39023856
2,1, 7,21, 0,20,30.00,40.00,SummerDesignDay
8,15.85926152575189
10,66670233.10231562
1801,0.0
1838,248668105.07116888
2,1, 7,21, 0,20,40.00,50.00,SummerDesignDay
8,15.779503718563929
10,66670233.10231562
1801,0.0
1838,243752781.28437028
2,1, 7,21, 0,20,50.00,60.00,SummerDesignDay
8,15.699515709672767
10,66670233.10231562
1801,0.0
1838,238395719.1350151
2,1, 7,21, 0,20, 0.00,60.00,SummerDesignDay
927,24.00000000000001
967,24.000000000000015
1007,24.00000000000001
1047,24.0
1087,25.258334503552928
1127,24.00000000000001
1167,24.000000000000019
1207,24.000000000000005
1247,24.00000000000001
1287,26.18125875555879
1327,24.000000000000005
1367,24.000000000000015
1407,27.566299469427407
1447,24.000000000000005
1487,24.0
1527,24.00000000000001
1567,24.000000000000019
1607,24.716200259876634
1647,24.000000000000005
1687,24.00000000000001
2,1, 7,21, 0,21, 0.00,10.00,SummerDesignDay
8,15.63389147320404
10,66190583.850730869
1801,0.0
1838,236472926.74890615
2,1, 7,21, 0,21,10.00,20.00,SummerDesignDay
8,15.56810827419793
10,66190583.850730869
1801,0.0
1838,230868418.7017905
2,1, 7,21, 0,21,20.00,30.00,SummerDesignDay
8,15.502170882753524
10,66190583.850730869
1801,0.0
1838,225043935.8550087
2,1, 7,21, 0,21,30.00,40.00,SummerDesignDay
8,15.436068032613852
10,66190583.850730869
1801,0.0