Program Version,EnergyPlus, Version 8.9.0-eba93e8e1b, YMD=2019.03.26 18:13
1,5,Environment Title[],Latitude[deg],Longitude[deg],Time Zone[],Elevation[m]
2,8,Day of Simulation[],Month[],Day of Month[],DST Indicator[1=yes 0=no],Hour[],StartMinute[],EndMinute[],DayType
3,5,Cumulative Day of Simulation[],Month[],Day of Month[],DST Indicator[1=yes 0=no],DayType  ! When Daily Report Variables Requested
4,2,Cumulative Days of Simulation[],Month[]  ! When Monthly Report Variables Requested
5,1,Cumulative Days of Simulation[] ! When Run Period Report Variables Requested
6,1,Calendar Year of Simulation[] ! When Annual Report Variables Requested
7,9,Environment,Site Outdoor Air Drybulb Temperature [C] !Monthly [Value,Min,Day,Hour,Minute,Max,Day,Hour,Minute]
8,1,Environment,Site Outdoor Air Wetbulb Temperature [C] !TimeStep
927,1,WHOLEBUILDING-AUTOMOTIVE FACILITY ZN,Zone Air Temperature [C] !Hourly
928,7,WHOLEBUILDING-AUTOMOTIVE FACILITY ZN,Zone Air Relative Humidity [%] !Daily [Value,Min,Hour,Minute,Max,Hour,Minute]
967,1,WHOLEBUILDING-CONVENTION CENTRE ZN,Zone Air Temperature [C] !Hourly
968,7,WHOLEBUILDING-CONVENTION CENTRE ZN,Zone Air Relative Humidity [%] !Daily [Value,Min,Hour,Minute,Max,Hour,Minute]
1007,1,WHOLEBUILDING-COURTHOUSE ZN,Zone Air Temperature [C] !Hourly
1008,7,WHOLEBUILDING-COURTHOUSE ZN,Zone Air Relative Humidity [%] !Daily [Value,Min,Hour,Minute,Max,Hour,Minute]
1047,1,WHOLEBUILDING-DINING - BAR LOUNGE/LEISURE ZN,Zone Air Temperature [C] !Hourly
1048,7,WHOLEBUILDING-DINING - BAR LOUNGE/LEISURE ZN,Zone Air Relative Humidity [%] !Daily [Value,Min,Hour,Minute,Max,Hour,Minute]
1087,1,WHOLEBUILDING-DINING - CAFETERIA/FAST FOOD ZN,Zone Air Temperature [C] !Hourly
1088,7,WHOLEBUILDING-DINING - CAFETERIA/FAST FOOD ZN,Zone Air Relative Humidity [%] !Daily [Value,Min,Hour,Minute,Max,Hour,Minute]
1127,1,WHOLEBUILDING-DINING - FAMILY ZN,Zone Air Temperature [C] !Hourly
1128,7,WHOLEBUILDING-DINING - FAMILY ZN,Zone Air Relative Humidity [%] !Daily [Value,Min,Hour,Minute,Max,Hour,Minute]
1167,1,WHOLEBUILDING-DORMITORY ZN,Zone Air Temperature [C] !Hourly
1168,7,WHOLEBUILDING-DORMITORY ZN,Zone Air Relative Humidity [%] !Daily [Value,Min,Hour,Minute,Max,Hour,Minute]
1207,1,WHOLEBUILDING-EXERCISE CENTRE ZN,Zone Air Temperature [C] !Hourly
1208,7,WHOLEBUILDING-EXERCISE CENTRE ZN,Zone Air Relative Humidity [%] !Daily [Value,Min,Hour,Minute,Max,Hour,Minute]
1247,1,WHOLEBUILDING-FIRE STATION ZN,Zone Air Temperature [C] !Hourly
1248,7,WHOLEBUILDING-FIRE STATION ZN,Zone Air Relative Humidity [%] !Daily [Value,Min,Hour,Minute,Max,Hour,Minute]
1287,1,WHOLEBUILDING-GYMNASIUM ZN,Zone Air Temperature [C] !Hourly
1288,7,WHOLEBUILDING-GYMNASIUM ZN,Zone Air Relative Humidity [%] !Daily [Value,Min,Hour,Minute,Max,Hour,Minute]
1327,1,WHOLEBUILDING-HEALTH CARE CLINIC ZN,Zone Air Temperature [C] !Hourly
1328,7,WHOLEBUILDING-HEALTH CARE CLINIC ZN,Zone Air Relative Humidity [%] !Daily [Value,Min,Hour,Minute,Max,Hour,Minute]
1367,1,WHOLEBUILDING-HOSPITAL ZN,Zone Air Temperature [C] !Hourly
1368,7,WHOLEBUILDING-HOSPITAL ZN,Zone Air Relative Humidity [%] !Daily [Value,Min,Hour,Minute,Max,Hour,Minute]
1407,1,WHOLEBUILDING-HOTEL/MOTEL ZN,Zone Air Temperature [C] !Hourly
1408,7,WHOLEBUILDING-HOTEL/MOTEL ZN,Zone Air Relative Humidity [%] !Daily [Value,Min,Hour,Minute,Max,Hour,Minute]
1447,1,WHOLEBUILDING-LIBRARY ZN,Zone Air Temperature [C] !Hourly
1448,7,WHOLEBUILDING-LIBRARY ZN,Zone Air Relative Humidity [%] !Daily [Value,Min,Hour,Minute,Max,Hour,Minute]
1487,1,WHOLEBUILDING-LONG-TERM CARE - DWELLING UNITS ZN,Zone Air Temperature [C] !Hourly
1488,7,WHOLEBUILDING-LONG-TERM CARE - DWELLING UNITS ZN,Zone Air Relative Humidity [%] !Daily [Value,Min,Hour,Minute,Max,Hour,Minute]
1527,1,WHOLEBUILDING-LONG-TERM CARE - OTHER ZN,Zone Air Temperature [C] !Hourly
1528,7,WHOLEBUILDING-LONG-TERM CARE - OTHER ZN,Zone Air Relative Humidity [%] !Daily [Value,Min,Hour,Minute,Max,Hour,Minute]
1567,1,WHOLEBUILDING-MANUFACTURING FACILITY ZN,Zone Air Temperature [C] !Hourly
1568,7,WHOLEBUILDING-MANUFACTURING FACILITY ZN,Zone Air Relative Humidity [%] !Daily [Value,Min,Hour,Minute,Max,Hour,Minute]
1607,1,WHOLEBUILDING-MOTION PICTURE THEATRE ZN,Zone Air Temperature [C] !Hourly
1608,7,WHOLEBUILDING-MOTION PICTURE THEATRE ZN,Zone Air Relative Humidity [%] !Daily [Value,Min,Hour,Minute,Max,Hour,Minute]
1647,1,WHOLEBUILDING-MULTI-UNIT RESIDENTIAL BUILDING ZN,Zone Air Temperature [C] !Hourly
1648,7,WHOLEBUILDING-MULTI-UNIT RESIDENTIAL BUILDING ZN,Zone Air Relative Humidity [%] !Daily [Value,Min,Hour,Minute,Max,Hour,Minute]
1687,1,WHOLEBUILDING-MUSEUM ZN,Zone Air Temperature [C] !Hourly
1688,7,WHOLEBUILDING-MUSEUM ZN,Zone Air Relative Humidity [%] !Daily [Value,Min,Hour,Minute,Max,Hour,Minute]
10,1,Electricity:Facility [J] !TimeStep
1838,1,DistrictCooling:Facility [J] !TimeStep
1801,1,DistrictHeating:Facility [J] !TimeStep
End of Data Dictionary
1,FORT MCMURRAY AP ANN CLG .4% CONDNS DB=>MWB,  56.65,-111.22,  -7.00, 369.10
2,1, 7,21, 0, 1, 0.00,10.00,SummerDesignDay
8,14.218136923962174
10,115364535.73604171
1801,0.0
1838,74560647.81652123
2,1, 7,21, 0, 1,10.00,20.00,SummerDesignDay
8,14.171982153293495
10,115364535.73604171
1801,0.0
1838,69894804.06990758
2,1, 7,21, 0, 1,20.00,30.00,SummerDesignDay
8,14.125744780286427
10,115364535.73604171
1801,0.0
1838,65681925.647510539
2,1, 7,21, 0, 1,30.00,40.00,SummerDesignDay
8,14.079436086331978
10,115364535.73604171
1801,0.0
1838,61466349.1833561
2,1, 7,21, 0, 1,40.00,50.00,SummerDesignDay
8,14.033050387896898
10,115364535.73604171
1801,0.0
1838,57657611.15681709
2,1, 7,21, 0, 1,50.00,60.00,SummerDesignDay
8,13.986581233564835
10,115364535.73604171
1801,0.0
1838,54476416.81550049
2,1, 7,21, 0, 1, 0.00,60.00,SummerDesignDay
927,22.583100038098789
967,22.76973643985009
1007,23.795067447710215
1047,24.0
1087,24.000000000000019
1127,23.992474967267328
1167,24.000000000000015
1207,24.00000000000001
1247,24.00000000000001
1287,24.000000000000033
1327,22.864085483513209
1367,23.997825390241997
1407,24.0
1447,23.497108348014679
1487,24.000000000000005
1527,24.00000000000001
1567,24.374578010831255
1607,24.036546767884304
1647,24.000000000000015
1687,24.589747947362996
2,1, 7,21, 0, 2, 0.00,10.00,SummerDesignDay
8,13.95555882260429
10,76388251.05717126
1801,0.0
1838,22543941.220020784
2,1, 7,21, 0, 2,10.00,20.00,SummerDesignDay
8,13.924507755336454
10,76388251.05717126
1801,0.0
1838,21525713.937054539
2,1, 7,21, 0, 2,20.00,30.00,SummerDesignDay
8,13.893416042989206
10,76388251.05717126
1801,0.0
1838,20666866.84911132
2,1, 7,21, 0, 2,30.00,40.00,SummerDesignDay
8,13.862289589689029
10,76388251.05717126
1801,0.0
1838,19823501.369548359
2,1, 7,21, 0, 2,40.00,50.00,SummerDesignDay
8,13.831134407608739
10,76388251.05717126
1801,0.0
1838,18996411.592604
2,1, 7,21, 0, 2,50.00,60.00,SummerDesignDay
8,13.799938415548118
10,76388251.05717126
1801,0.0
1838,18178325.2696005
2,1, 7,21, 0, 2, 0.00,60.00,SummerDesignDay
927,22.163200017928849
967,22.394589574141503
1007,23.43418506740507
1047,23.55209866359881
1087,23.85462780563276
1127,23.198734352197464
1167,24.000000000000005
1207,24.013097979594638
1247,24.000000000000005
1287,24.449243901979999
1327,22.537753434002778
1367,23.86548457682854
1407,24.0
1447,23.287666901814075
1487,24.0
1527,23.896252104174285
1567,24.119206151526567
1607,23.843405294876857
1647,24.0
1687,24.40920289850675
2,1, 7,21, 0, 3, 0.00,10.00,SummerDesignDay
8,13.776521671948676
10,44186552.51498858
1801,0.0
1838,17457037.85096623
2,1, 7,21, 0, 3,10.00,20.00,SummerDesignDay
8,13.753085235778466
10,44186552.51498858
1801,0.0
1838,16775274.582199892
2,1, 7,21, 0, 3,20.00,30.00,SummerDesignDay
8,13.729636002354969
10,44186552.51498858
1801,0.0
1838,16266826.415846885
2,1, 7,21, 0, 3,30.00,40.00,SummerDesignDay
8,13.706147375533054
10,44186552.51498858
1801,0.0
1838,15752110.188416757
2,1, 7,21, 0, 3,40.00,50.00,SummerDesignDay
8,13.682651961920304
10,44186552.51498858
1801,0.0
1838,15234091.113779815
2,1, 7,21, 0, 3,50.00,60.00,SummerDesignDay
8,13.659136670643687
10,44186552.51498858
1801,0.0
1838,14730863.572239658
2,1, 7,21, 0, 3, 0.00,60.00,SummerDesignDay
927,21.797937783647219
967,22.052513291549919
1007,23.09801602632595
1047,22.51026937991067
1087,23.283224593057175
1127,22.066919374290508
1167,24.0
1207,23.455164295887177
1247,23.964385601842719
1287,24.00136120724739
1327,22.28309130068327
1367,23.64656842923955
1407,24.000000000000005
1447,23.113128484683135
1487,23.999902346268489
1527,23.474113781845494
1567,23.91058095407078
1607,23.68187371566393
1647,24.000000000000015
1687,24.25666450411452
2,1, 7,21, 0, 4, 0.00,10.00,SummerDesignDay
8,13.63560137410855
10,42172445.810969728
1801,0.0
1838,13612524.040217624
2,1, 7,21, 0, 4,10.00,20.00,SummerDesignDay
8,13.612040802606578
10,42172445.810969728
1801,0.0
1838,13134318.210052239
2,1, 7,21, 0, 4,20.00,30.00,SummerDesignDay
8,13.58846620506876
10,42172445.810969728
1801,0.0
1838,12669895.532431214
2,1, 7,21, 0, 4,30.00,40.00,SummerDesignDay
8,13.56487178447336
10,42172445.810969728
1801,0.0
1838,12209074.494004636
2,1, 7,21, 0, 4,40.00,50.00,SummerDesignDay
8,13.541257354069103
10,42172445.810969728
1801,0.0
1838,11751184.74673663
2,1, 7,21, 0, 4,50.00,60.00,SummerDesignDay
8,13.517617463812285
10,42172445.810969728
1801,0.0
1838,11295335.890091123
2,1, 7,21, 0, 4, 0.00,60.00,SummerDesignDay
927,21.452333934104034
967,21.729583797689235
1007,22.774857951794315
1047,21.842998443326029
1087,22.9374619199388
1127,21.438114167351448
1167,24.00000000000001
1207,23.0756648435253
1247,23.736566282714369
1287,23.620676200148649
1327,22.049878331123116
1367,23.446823760750197
1407,24.000000000000015
1447,22.95373752181167
1487,23.960792261461124
1527,23.219299898809238
1567,23.717082147716906
1607,23.53287889309662
1647,24.00000000000001
1687,24.117176254057389
2,1, 7,21, 0, 5, 0.00,10.00,SummerDesignDay
8,13.50185415824011
10,42172445.810969728
1801,0.0
1838,10892843.854403954
2,1, 7,21, 0, 5,10.00,20.00,SummerDesignDay
8,13.486076034032447
10,42172445.810969728
1801,0.0
1838,10536139.49063114
2,1, 7,21, 0, 5,20.00,30.00,SummerDesignDay
8,13.470289340350983
10,42172445.810969728
1801,0.0
1838,10171042.63604242
2,1, 7,21, 0, 5,30.00,40.00,SummerDesignDay
8,13.454493322631063
10,42172445.810969728
1801,0.0
1838,9813314.641434379
2,1, 7,21, 0, 5,40.00,50.00,SummerDesignDay
8,13.438688835118548
10,42172445.810969728
1801,0.0
1838,9463824.437315904
2,1, 7,21, 0, 5,50.00,60.00,SummerDesignDay
8,13.422888173889437
10,42172445.810969728
1801,0.0
1838,9122513.060211709
2,1, 7,21, 0, 5, 0.00,60.00,SummerDesignDay
927,21.40517618996479
967,21.63892652626504
1007,22.561288779283556
1047,21.521501173541336
1087,22.695992438581766
1127,21.14027403066899
1167,24.00000000000001
1207,22.907077446528679
1247,23.585753539885564
1287,23.34183371949373
1327,21.929344375500194
1367,23.266543965454305
1407,24.000000000000019
1447,22.806651736845624
1487,23.865004434083976
1527,23.091734250510915
1567,23.538428725062656
1607,23.455677394079648
1647,24.00000000000001
1687,23.992080436284739
2,1, 7,21, 0, 6, 0.00,10.00,SummerDesignDay
8,13.438688835118548
10,43579206.872633118
1801,0.0
1838,9008147.27648335
2,1, 7,21, 0, 6,10.00,20.00,SummerDesignDay
8,13.454493322631063
10,43579206.872633118
1801,0.0
1838,8893961.102336519
2,1, 7,21, 0, 6,20.00,30.00,SummerDesignDay
8,13.470289340350983
10,43579206.872633118
1801,0.0
1838,8784211.646292257
2,1, 7,21, 0, 6,30.00,40.00,SummerDesignDay
8,13.486076034032447
10,43579206.872633118
1801,0.0
1838,8681320.070393075
2,1, 7,21, 0, 6,40.00,50.00,SummerDesignDay
8,13.50185415824011
10,43579206.872633118
1801,0.0
1838,8585338.362003942
2,1, 7,21, 0, 6,50.00,60.00,SummerDesignDay
8,13.517617463812285
10,43579206.872633118
1801,0.0
1838,8496311.932974589
2,1, 7,21, 0, 6, 0.00,60.00,SummerDesignDay
927,22.38112069697165
967,22.00798138834452
1007,22.679729062367114
1047,21.55310602053469
1087,22.543621252003449
1127,21.164852604278527
1167,24.000000000000005
1207,23.180762796634743
1247,23.574586823478147
1287,23.163020352929256
1327,22.206353347625734
1367,23.206540977753226
1407,24.000000000000005
1447,22.71763737969388
1487,23.908858464277399
1527,23.016277081630326
1567,23.442722889205546
1607,23.486438774416759
1647,24.000000000000015
1687,23.9285686336554
2,1, 7,21, 0, 7, 0.00,10.00,SummerDesignDay
8,13.572736920571789
10,49611023.168762598
1801,0.0
1838,10786701.148623713
2,1, 7,21, 0, 7,10.00,20.00,SummerDesignDay
8,13.627748229152554
10,49611023.168762598
1801,0.0
1838,12282394.307249047
2,1, 7,21, 0, 7,20.00,30.00,SummerDesignDay
8,13.682651961920304
10,49611023.168762598
1801,0.0
1838,12408595.307478335
2,1, 7,21, 0, 7,30.00,40.00,SummerDesignDay
8,13.737448093244995
10,49611023.168762598
1801,0.0
1838,12746777.54028501
2,1, 7,21, 0, 7,40.00,50.00,SummerDesignDay
8,13.792137011831216
10,49611023.168762598
1801,0.0
1838,13169417.21026088
2,1, 7,21, 0, 7,50.00,60.00,SummerDesignDay
8,13.846719282840333
10,49611023.168762598
1801,0.0
1838,13558465.480030295
2,1, 7,21, 0, 7, 0.00,60.00,SummerDesignDay
927,23.739822595078427
967,22.374582300725764
1007,23.16307253015597
1047,21.97235649740485
1087,22.560959795864208
1127,21.585009891307608
1167,24.000000000000005
1207,23.65889447324704
1247,23.597092344602804
1287,23.15366736823256
1327,22.687079682195557
1367,23.393806590211999
1407,24.00000000000001
1447,22.74621744108921
1487,23.997749363116637
1527,23.0373607392528
1567,23.48763391938394
1607,23.45641593656949
1647,24.00000000000001
1687,23.959678573632929
2,1, 7,21, 0, 8, 0.00,10.00,SummerDesignDay
8,13.978831900527043
10,75899823.61656174
1801,0.0
1838,32871314.26738342
2,1, 7,21, 0, 8,10.00,20.00,SummerDesignDay
8,14.110321014287419
10,75899823.61656174
1801,0.0
1838,40241034.741314079
2,1, 7,21, 0, 8,20.00,30.00,SummerDesignDay
8,14.241191509616986
10,75899823.61656174
1801,0.0
1838,51618358.26154104
2,1, 7,21, 0, 8,30.00,40.00,SummerDesignDay
8,14.371447531304272
10,75899823.61656174
1801,0.0
1838,55158913.90855301
2,1, 7,21, 0, 8,40.00,50.00,SummerDesignDay
8,14.501093766564925
10,75899823.61656174
1801,0.0
1838,62951168.60336285
2,1, 7,21, 0, 8,50.00,60.00,SummerDesignDay
8,14.630134792273804
10,75899823.61656174
1801,0.0
1838,74508632.1591119
2,1, 7,21, 0, 8, 0.00,60.00,SummerDesignDay
927,24.00185057914723
967,23.31663305353686
1007,23.94746402528222
1047,23.016977738623188
1087,22.85762164318022
1127,22.629947156510459
1167,24.00000000000001
1207,24.3148724168136
1247,23.870138887005984
1287,23.42617895645269
1327,23.616400339710287
1367,23.871898826077844
1407,24.00000000000001
1447,22.956544980027777
1487,23.999999999997614
1527,23.215741692125488
1567,23.926676111932406
1607,23.620386705177798
1647,24.000000000000015
1687,23.99999917265235
2,1, 7,21, 0, 9, 0.00,10.00,SummerDesignDay
8,14.773641492809972
10,140981842.2370735
1801,0.0
1838,141821202.6709489
2,1, 7,21, 0, 9,10.00,20.00,SummerDesignDay
8,14.91640948124148
10,140981842.2370735
1801,0.0
1838,163444001.71837668
2,1, 7,21, 0, 9,20.00,30.00,SummerDesignDay
8,15.05843890714102
10,140981842.2370735
1801,0.0
1838,192450059.68335933
2,1, 7,21, 0, 9,30.00,40.00,SummerDesignDay
8,15.199735893563798
10,140981842.2370735
1801,0.0
1838,213303063.0972726
2,1, 7,21, 0, 9,40.00,50.00,SummerDesignDay
8,15.340306256439395
10,140981842.2370735
1801,0.0
1838,228663369.41872797
2,1, 7,21, 0, 9,50.00,60.00,SummerDesignDay
8,15.48015101768072
10,140981842.2370735
1801,0.0
1838,249882785.6103552
2,1, 7,21, 0, 9, 0.00,60.00,SummerDesignDay
927,24.00000000000522
967,23.999877176488086
1007,23.99999999999692
1047,23.971952736276746
1087,23.46462240019956
1127,23.873579075597794
1167,24.0
1207,23.99534938006035
1247,23.999999501468325
1287,23.91217990271542
1327,23.999922853486156
1367,23.999997993346836
1407,24.000000000000005
1447,23.83657549022398
1487,24.00000000000001
1527,23.57883352971561
1567,23.99999999417081
1607,23.985566421726785
1647,24.000000000000005
1687,24.000000000000015
2,1, 7,21, 0,10, 0.00,10.00,SummerDesignDay
8,15.60467292907716
10,195264437.5394077
1801,0.0
1838,301347605.44617667
2,1, 7,21, 0,10,10.00,20.00,SummerDesignDay
8,15.72862731650033
10,195264437.5394077
1801,0.0
1838,332380971.9691804
2,1, 7,21, 0,10,20.00,30.00,SummerDesignDay
8,15.852017409284228
10,195264437.5394077
1801,0.0
1838,346657758.3100799
2,1, 7,21, 0,10,30.00,40.00,SummerDesignDay
8,15.974848118364367
10,195264437.5394077
1801,0.0
1838,364473439.6723896
2,1, 7,21, 0,10,40.00,50.00,SummerDesignDay
8,16.097123145563505
10,195264437.5394077
1801,0.0
1838,381852216.8314562
2,1, 7,21, 0,10,50.00,60.00,SummerDesignDay
8,16.218846351168599
10,195264437.5394077
1801,0.0
1838,398124237.16470059
2,1, 7,21, 0,10, 0.00,60.00,SummerDesignDay
927,24.000000000000019
967,23.99999999999967
1007,24.000000000000044
1047,23.999999999800733
1087,23.996606536142897
1127,23.999999936442057
1167,24.00000000000001
1207,23.999999999969814
1247,23.999999999999998
1287,23.999999684048804
1327,23.99999999997634
1367,23.999999999999237
1407,24.000000000000015
1447,23.999999986262215
1487,24.00000000000001
1527,23.988400447867766
1567,24.000000000000019
1607,23.999999999998996
1647,24.000000000000005
1687,24.00000000000001
2,1, 7,21, 0,11, 0.00,10.00,SummerDesignDay
8,16.325793027093189
10,214257587.55327905
1801,0.0
1838,434163559.9985529
2,1, 7,21, 0,11,10.00,20.00,SummerDesignDay
8,16.432322158488288
10,214257587.55327905
1801,0.0
1838,449367527.6332332
2,1, 7,21, 0,11,20.00,30.00,SummerDesignDay
8,16.538424180249178
10,214257587.55327905
1801,0.0
1838,463114376.4207132
2,1, 7,21, 0,11,30.00,40.00,SummerDesignDay
8,16.644108396469087
10,214257587.55327905
1801,0.0
1838,476510487.75103649
2,1, 7,21, 0,11,40.00,50.00,SummerDesignDay
8,16.749376736593655
10,214257587.55327905
1801,0.0
1838,489187715.8906794
2,1, 7,21, 0,11,50.00,60.00,SummerDesignDay
8,16.854232613237156
10,214257587.55327905
1801,0.0
1838,501610053.76843127
2,1, 7,21, 0,11, 0.00,60.00,SummerDesignDay
927,23.999999999999984
967,24.000000000000058
1007,24.00000000000003
1047,24.000000000000033
1087,23.99999999870025
1127,24.00000000000004
1167,24.000000000000026
1207,24.0
1247,24.000000000000005
1287,23.99999999999992
1327,24.00000000000003
1367,24.00000000000001
1407,24.0
1447,24.000000000000005
1487,24.000000000000015
1527,23.999999999946295
1567,24.000000000000033
1607,24.0
1647,24.000000000000019
1687,24.000000000000026
2,1, 7,21, 0,12, 0.00,10.00,SummerDesignDay
8,16.92390823520069
10,227725355.2532196
1801,0.0
1838,528966780.0024666
2,1, 7,21, 0,12,10.00,20.00,SummerDesignDay
8,16.99340178950456
10,227725355.2532196
1801,0.0
1838,539453127.3633522
2,1, 7,21, 0,12,20.00,30.00,SummerDesignDay
8,17.06272006743463
10,227725355.2532196
1801,0.0
1838,549122984.2638087
2,1, 7,21, 0,12,30.00,40.00,SummerDesignDay
8,17.131853229172639
10,227725355.2532196
1801,0.0
1838,558684769.8234934
2,1, 7,21, 0,12,40.00,50.00,SummerDesignDay
8,17.200807172194087
10,227725355.2532196
1801,0.0
1838,568044188.7665383
2,1, 7,21, 0,12,50.00,60.00,SummerDesignDay
8,17.269582116758607
10,227725355.2532196
1801,0.0
1838,577163637.6248583
2,1, 7,21, 0,12, 0.00,60.00,SummerDesignDay
927,24.000000000000044
967,24.000000000000047
1007,24.000000000000047
1047,24.00000000000006
1087,24.000000000000005
1127,24.000000000000019
1167,24.00000000000001
1207,24.000000000000015
1247,24.0
1287,24.0
1327,23.999999999999969
1367,24.0
1407,24.00000000000001
1447,24.00000000000003
1487,24.00000000000001
1527,24.00000000000001
1567,24.000000000000033
1607,24.00000000000001
1647,24.00000000000001
1687,24.00000000000001
2,1, 7,21, 0,13, 0.00,10.00,SummerDesignDay
8,17.32447360221357
10,224923462.35466925
1801,0.0
1838,600549079.2277771
2,1, 7,21, 0,13,10.00,20.00,SummerDesignDay
8,17.379251291230806
10,224923462.35466925
1801,0.0
1838,608768205.6864255
2,1, 7,21, 0,13,20.00,30.00,SummerDesignDay
8,17.433921312061729
10,224923462.35466925
1801,0.0
1838,616557367.6505692
2,1, 7,21, 0,13,30.00,40.00,SummerDesignDay
8,17.488473222557489
10,224923462.35466925
1801,0.0
1838,624187723.0658386
2,1, 7,21, 0,13,40.00,50.00,SummerDesignDay
8,17.542913447755134
10,224923462.35466925
1801,0.0
1838,631421784.6699307
2,1, 7,21, 0,13,50.00,60.00,SummerDesignDay
8,17.59724609886134
10,224923462.35466925
1801,0.0
1838,638195754.0381579
2,1, 7,21, 0,13, 0.00,60.00,SummerDesignDay
927,24.000000000000047
967,24.000000000000019
1007,23.999999999999984
1047,24.0
1087,24.00000000000003
1127,24.000000000000005
1167,24.000000000000026
1207,23.999999999999976
1247,24.00000000000001
1287,23.99999999999999
1327,24.0
1367,24.0
1407,24.00000000000001
1447,24.000000000000005
1487,24.0
1527,24.00000000000001
1567,24.000000000000033
1607,24.000000000000026
1647,24.000000000000015
1687,24.000000000000026
2,1, 7,21, 0,14, 0.00,10.00,SummerDesignDay
8,17.6311450462694
10,224923462.35466925
1801,0.0
1838,638455742.6004765
2,1, 7,21, 0,14,10.00,20.00,SummerDesignDay
8,17.665000449016245
10,224923462.35466925
1801,0.0
1838,642506018.5770936
2,1, 7,21, 0,14,20.00,30.00,SummerDesignDay
8,17.698812743128934
10,224923462.35466925
1801,0.0
1838,646517880.5197073
2,1, 7,21, 0,14,30.00,40.00,SummerDesignDay
8,17.732582050940107
10,224923462.35466925
1801,0.0
1838,650534841.211164
2,1, 7,21, 0,14,40.00,50.00,SummerDesignDay
8,17.766307345121004
10,224923462.35466925
1801,0.0
1838,654608681.3404956
2,1, 7,21, 0,14,50.00,60.00,SummerDesignDay
8,17.79999023167558
10,224923462.35466925
1801,0.0
1838,658734616.010189
2,1, 7,21, 0,14, 0.00,60.00,SummerDesignDay
927,24.0
967,23.999999999999998
1007,24.000000000000033
1047,24.000000000000026
1087,24.00000000000001
1127,24.00000000000004
1167,24.0
1207,24.000000000000047
1247,24.000000000000015
1287,24.000000000000026
1327,23.99999999999999
1367,24.0
1407,24.0
1447,24.000000000000026
1487,24.000000000000015
1527,24.000000000000015
1567,24.000000000000026
1607,24.000000000000015
1647,24.00000000000001
1687,24.000000000000026
2,1, 7,21, 0,15, 0.00,10.00,SummerDesignDay
8,17.79999023167558
10,225092273.68206886
1801,0.0
1838,649678124.476593
2,1, 7,21, 0,15,10.00,20.00,SummerDesignDay
8,17.79999023167558
10,225092273.68206886
1801,0.0
1838,650230099.6317585
2,1, 7,21, 0,15,20.00,30.00,SummerDesignDay
8,17.79999023167558
10,225092273.68206886
1801,0.0
1838,650834374.1043269
2,1, 7,21, 0,15,30.00,40.00,SummerDesignDay
8,17.79999023167558
10,225092273.68206886
1801,0.0
1838,651261939.8555672
2,1, 7,21, 0,15,40.00,50.00,SummerDesignDay
8,17.79999023167558
10,225092273.68206886
1801,0.0
1838,651496360.9377357
2,1, 7,21, 0,15,50.00,60.00,SummerDesignDay
8,17.79999023167558
10,225092273.68206886
1801,0.0
1838,651474751.6194277
2,1, 7,21, 0,15, 0.00,60.00,SummerDesignDay
927,24.000000000000026
967,24.000000000000019
1007,24.000000000000069
1047,24.0000000000001
1087,24.00000000000001
1127,24.000000000000055
1167,24.00000000000001
1207,24.000000000000015
1247,24.000000000000026
1287,24.0
1327,23.999999999999976
1367,24.00000000000004
1407,24.000000000000005
1447,24.000000000000015
1487,24.000000000000005
1527,24.0
1567,24.000000000000026
1607,24.00000000000003
1647,24.000000000000005
1687,24.00000000000001
2,1, 7,21, 0,16, 0.00,10.00,SummerDesignDay
8,17.759562446305357
10,225092273.68206886
1801,0.0
1838,636327702.8320865
2,1, 7,21, 0,16,10.00,20.00,SummerDesignDay
8,17.71907809634183
10,225092273.68206886
1801,0.0
1838,631485636.8227929
2,1, 7,21, 0,16,20.00,30.00,SummerDesignDay
8,17.67853788661001
10,225092273.68206886
1801,0.0
1838,626310052.8031497
2,1, 7,21, 0,16,30.00,40.00,SummerDesignDay
8,17.63791796367351
10,225092273.68206886
1801,0.0
1838,620794741.5404557
2,1, 7,21, 0,16,40.00,50.00,SummerDesignDay
8,17.59724609886134
10,225092273.68206886
1801,0.0
1838,615072995.3228095
2,1, 7,21, 0,16,50.00,60.00,SummerDesignDay
8,17.55650676726033
10,225092273.68206886
1801,0.0
1838,609151939.042464
2,1, 7,21, 0,16, 0.00,60.00,SummerDesignDay
927,24.00000000000004
967,24.0
1007,24.00000000000001
1047,23.999999999999976
1087,24.000000000000015
1127,24.000000000000055
1167,24.00000000000001
1207,23.99999999999997
1247,24.00000000000003
1287,24.000000000000015
1327,24.000000000000026
1367,24.0
1407,23.999999999999998
1447,24.000000000000033
1487,24.000000000000005
1527,24.0
1567,24.000000000000033
1607,24.00000000000001
1647,24.000000000000005
1687,24.0
2,1, 7,21, 0,17, 0.00,10.00,SummerDesignDay
8,17.50209486331892
10,225767518.9916673
1801,0.0
1838,604907226.5945159
2,1, 7,21, 0,17,10.00,20.00,SummerDesignDay
8,17.447570789624618
10,225767518.9916673
1801,0.0
1838,597577484.812091
2,1, 7,21, 0,17,20.00,30.00,SummerDesignDay
8,17.392929544208135
10,225767518.9916673
1801,0.0
1838,590062248.5826172
2,1, 7,21, 0,17,30.00,40.00,SummerDesignDay
8,17.33818013976614
10,225767518.9916673
1801,0.0
1838,582379631.4875575
2,1, 7,21, 0,17,40.00,50.00,SummerDesignDay
8,17.283317298559309
10,225767518.9916673
1801,0.0
1838,574510301.9470755
2,1, 7,21, 0,17,50.00,60.00,SummerDesignDay
8,17.22833552437677
10,225767518.9916673
1801,0.0
1838,566452950.3167944
2,1, 7,21, 0,17, 0.00,60.00,SummerDesignDay
927,24.000000000000044
967,24.0
1007,24.000000000000055
1047,24.00000000000007
1087,24.000000000000015
1127,24.000000000000044
1167,24.00000000000003
1207,24.000000000000019
1247,24.00000000000001
1287,24.000000000000044
1327,24.00000000000001
1367,24.000000000000005
1407,24.000000000000005
1447,24.000000000000026
1487,24.000000000000019
1527,24.0
1567,24.000000000000033
1607,24.000000000000019
1647,24.0
1687,24.00000000000001
2,1, 7,21, 0,18, 0.00,10.00,SummerDesignDay
8,17.159453019160176
10,219498991.70089526
1801,0.0
1838,554383772.1415877
2,1, 7,21, 0,18,10.00,20.00,SummerDesignDay
8,17.090391773337136
10,219498991.70089526
1801,0.0
1838,544350357.3517375
2,1, 7,21, 0,18,20.00,30.00,SummerDesignDay
8,17.021151077964786
10,219498991.70089526
1801,0.0
1838,534249806.45432987
2,1, 7,21, 0,18,30.00,40.00,SummerDesignDay
8,16.951729380464653
10,219498991.70089526
1801,0.0
1838,524252958.93549427
2,1, 7,21, 0,18,40.00,50.00,SummerDesignDay
8,16.882126503829249
10,219498991.70089526
1801,0.0
1838,514285265.8437428
2,1, 7,21, 0,18,50.00,60.00,SummerDesignDay
8,16.812341807494034
10,219498991.70089526
1801,0.0
1838,504345013.27236488
2,1, 7,21, 0,18, 0.00,60.00,SummerDesignDay
927,24.000000000000033
967,24.000000000000047
1007,24.000000000000019
1047,24.00000000000009
1087,24.000000000000026
1127,23.999999999999976
1167,24.00000000000001
1207,24.000000000000026
1247,24.000000000000015
1287,24.000000000000015
1327,23.999999999999969
1367,24.000000000000015
1407,23.999999999999998
1447,24.000000000000044
1487,24.000000000000015
1527,24.000000000000019
1567,23.99999999999999
1607,24.00000000000001
1647,24.00000000000001
1687,24.000000000000019
2,1, 7,21, 0,19, 0.00,10.00,SummerDesignDay
8,16.707321072823203
10,197204642.3956539
1801,0.0
1838,481582159.9361994
2,1, 7,21, 0,19,10.00,20.00,SummerDesignDay
8,16.601881826644556
10,197204642.3956539
1801,0.0
1838,467378489.50940629
2,1, 7,21, 0,19,20.00,30.00,SummerDesignDay
8,16.496030555252849
10,197204642.3956539
1801,0.0
1838,454220954.1255572
2,1, 7,21, 0,19,30.00,40.00,SummerDesignDay
8,16.389760181474104
10,197204642.3956539
1801,0.0
1838,440984680.4391487
2,1, 7,21, 0,19,40.00,50.00,SummerDesignDay
8,16.283067654262039
10,197204642.3956539
1801,0.0
1838,427933541.40908679
2,1, 7,21, 0,19,50.00,60.00,SummerDesignDay
8,16.17595057957811
10,197204642.3956539
1801,0.0
1838,415033266.09484216
2,1, 7,21, 0,19, 0.00,60.00,SummerDesignDay
927,23.99999999999999
967,24.00000000000001
1007,23.99999999999999
1047,24.000000000000026
1087,24.00000000000004
1127,24.000000000000047
1167,24.00000000000001
1207,24.000000000000019
1247,24.000000000000015
1287,24.00000000000004
1327,23.999999999999998
1367,24.000000000000044
1407,24.00000000000001
1447,24.000000000000015
1487,24.00000000000001
1527,24.0
1567,24.00000000000001
1607,24.000000000000044
1647,24.0
1687,24.00000000000003
2,1, 7,21, 0,20, 0.00,10.00,SummerDesignDay
8,16.097123145563505
10,182550318.63223563
1801,0.0
1838,384538847.6745142
2,1, 7,21, 0,20,10.00,20.00,SummerDesignDay
8,16.018070242471564
10,182550318.63223563
1801,0.0
1838,374486830.81456586
2,1, 7,21, 0,20,20.00,30.00,SummerDesignDay
8,15.938779752340516
10,182550318.63223563
1801,0.0
1838,364772139.98820069
2,1, 7,21, 0,20,30.00,40.00,SummerDesignDay
8,15.85926152575189
10,182550318.63223563
1801,0.0
1838,354771783.8986672
2,1, 7,21, 0,20,40.00,50.00,SummerDesignDay
8,15.779503718563929
10,182550318.63223563
1801,0.0
1838,344456386.84669408
2,1, 7,21, 0,20,50.00,60.00,SummerDesignDay
8,15.699515709672767
10,182550318.63223563
1801,0.0
1838,333888976.4538508
2,1, 7,21, 0,20, 0.00,60.00,SummerDesignDay
927,25.138267488341218
967,24.0
1007,24.000000000000005
1047,24.000000000000044
1087,24.000000000000019
1127,23.999999999999987
1167,24.0
1207,24.000000000000005
1247,24.00000000000001
1287,24.000000000000033
1327,24.000000000000019
1367,24.000000000000019
1407,24.000000000000005
1447,24.00000000000001
1487,24.00000000000001
1527,24.000000000000015
1567,24.00000000000003
1607,24.000000000000015
1647,24.00000000000001
1687,24.000000000000026
2,1, 7,21, 0,21, 0.00,10.00,SummerDesignDay
8,15.63389147320404
10,179274628.60811714
1801,0.0
1838,323132465.2500974
2,1, 7,21, 0,21,10.00,20.00,SummerDesignDay
8,15.56810827419793
10,179274628.60811714
1801,0.0
1838,312614215.97024878
2,1, 7,21, 0,21,20.00,30.00,SummerDesignDay
8,15.502170882753524
10,179274628.60811714
1801,0.0
1838,302011679.26367899
2,1, 7,21, 0,21,30.00,40.00,SummerDesignDay
8,15.436068032613852
10,179274628.60811714
1801,0.0
1838,291377982.69947519
2,1, 7,21, 0,21,40.00,50.00,SummerDesignDay
8,15.369804371206009
10,179274628.60811714
1801,0.0
1838,281375198.0890248
2,1, 7,21, 0,21,50.00,60.00,SummerDesignDay
8,15.303384603594449
10,179274628.60811714
1801,0.0
1838,271110270.772221
2,1, 7,21, 0,21, 0.00,60.00,SummerDesignDay
927,24.918857848015678
967,24.0
1007,23.999999999999998
1047,23.999999999999959
1087,23.999999999999984
1127,24.00000000000001
1167,24.000000000000019
1207,24.000000000000015
1247,24.000000000000026
1287,24.000000000000033