Program Version,EnergyPlus, Version 8.9.0-eba93e8e1b, YMD=2019.03.20 18:01
1,5,Environment Title[],Latitude[deg],Longitude[deg],Time Zone[],Elevation[m]
2,8,Day of Simulation[],Month[],Day of Month[],DST Indicator[1=yes 0=no],Hour[],StartMinute[],EndMinute[],DayType
3,5,Cumulative Day of Simulation[],Month[],Day of Month[],DST Indicator[1=yes 0=no],DayType  ! When Daily Report Variables Requested
4,2,Cumulative Days of Simulation[],Month[]  ! When Monthly Report Variables Requested
5,1,Cumulative Days of Simulation[] ! When Run Period Report Variables Requested
6,1,Calendar Year of Simulation[] ! When Annual Report Variables Requested
7,9,Environment,Site Outdoor Air Drybulb Temperature [C] !Monthly [Value,Min,Day,Hour,Minute,Max,Day,Hour,Minute]
8,1,Environment,Site Outdoor Air Wetbulb Temperature [C] !TimeStep
849,1,PENITENTIARY - DINING-SPACE FUNCTION ZN,Zone Air Temperature [C] !Hourly
850,7,PENITENTIARY - DINING-SPACE FUNCTION ZN,Zone Air Relative Humidity [%] !Daily [Value,Min,Hour,Minute,Max,Hour,Minute]
889,1,POST OFFICE SORTING-SPACE FUNCTION ZN,Zone Air Temperature [C] !Hourly
890,7,POST OFFICE SORTING-SPACE FUNCTION ZN,Zone Air Relative Humidity [%] !Daily [Value,Min,Hour,Minute,Max,Hour,Minute]
929,1,RELIGIOUS - AUDIENCE-SPACE FUNCTION ZN,Zone Air Temperature [C] !Hourly
930,7,RELIGIOUS - AUDIENCE-SPACE FUNCTION ZN,Zone Air Relative Humidity [%] !Daily [Value,Min,Hour,Minute,Max,Hour,Minute]
969,1,RELIGIOUS - FELLOWSHIP HALL-SPACE FUNCTION ZN,Zone Air Temperature [C] !Hourly
970,7,RELIGIOUS - FELLOWSHIP HALL-SPACE FUNCTION ZN,Zone Air Relative Humidity [%] !Daily [Value,Min,Hour,Minute,Max,Hour,Minute]
1009,1,RELIGIOUS - PULPIT/CHOIR-SPACE FUNCTION ZN,Zone Air Temperature [C] !Hourly
1010,7,RELIGIOUS - PULPIT/CHOIR-SPACE FUNCTION ZN,Zone Air Relative Humidity [%] !Daily [Value,Min,Hour,Minute,Max,Hour,Minute]
1049,1,RETAIL - DRESSING/FITTING-SPACE FUNCTION ZN,Zone Air Temperature [C] !Hourly
1050,7,RETAIL - DRESSING/FITTING-SPACE FUNCTION ZN,Zone Air Relative Humidity [%] !Daily [Value,Min,Hour,Minute,Max,Hour,Minute]
1089,1,RETAIL - MALL CONCOURSE-SPACE FUNCTION ZN,Zone Air Temperature [C] !Hourly
1090,7,RETAIL - MALL CONCOURSE-SPACE FUNCTION ZN,Zone Air Relative Humidity [%] !Daily [Value,Min,Hour,Minute,Max,Hour,Minute]
1129,1,RETAIL - SALES-SPACE FUNCTION ZN,Zone Air Temperature [C] !Hourly
1130,7,RETAIL - SALES-SPACE FUNCTION ZN,Zone Air Relative Humidity [%] !Daily [Value,Min,Hour,Minute,Max,Hour,Minute]
1169,1,SALES AREA-SPACE FUNCTION ZN,Zone Air Temperature [C] !Hourly
1170,7,SALES AREA-SPACE FUNCTION ZN,Zone Air Relative Humidity [%] !Daily [Value,Min,Hour,Minute,Max,Hour,Minute]
1209,1,SPORTS ARENA - AUDIENCE-SPACE FUNCTION ZN,Zone Air Temperature [C] !Hourly
1210,7,SPORTS ARENA - AUDIENCE-SPACE FUNCTION ZN,Zone Air Relative Humidity [%] !Daily [Value,Min,Hour,Minute,Max,Hour,Minute]
1249,1,SPORTS ARENA - COURT C1-SPACE FUNCTION ZN,Zone Air Temperature [C] !Hourly
1250,7,SPORTS ARENA - COURT C1-SPACE FUNCTION ZN,Zone Air Relative Humidity [%] !Daily [Value,Min,Hour,Minute,Max,Hour,Minute]
1289,1,SPORTS ARENA - COURT C2-SPACE FUNCTION ZN,Zone Air Temperature [C] !Hourly
1290,7,SPORTS ARENA - COURT C2-SPACE FUNCTION ZN,Zone Air Relative Humidity [%] !Daily [Value,Min,Hour,Minute,Max,Hour,Minute]
1329,1,SPORTS ARENA - COURT C3-SPACE FUNCTION ZN,Zone Air Temperature [C] !Hourly
1330,7,SPORTS ARENA - COURT C3-SPACE FUNCTION ZN,Zone Air Relative Humidity [%] !Daily [Value,Min,Hour,Minute,Max,Hour,Minute]
1369,1,SPORTS ARENA - COURT C4-SPACE FUNCTION ZN,Zone Air Temperature [C] !Hourly
1370,7,SPORTS ARENA - COURT C4-SPACE FUNCTION ZN,Zone Air Relative Humidity [%] !Daily [Value,Min,Hour,Minute,Max,Hour,Minute]
1409,1,SPORTS ARENA - RING-SPACE FUNCTION ZN,Zone Air Temperature [C] !Hourly
1410,7,SPORTS ARENA - RING-SPACE FUNCTION ZN,Zone Air Relative Humidity [%] !Daily [Value,Min,Hour,Minute,Max,Hour,Minute]
1449,1,STAIRWAY-SCH-A-SPACE FUNCTION ZN,Zone Air Temperature [C] !Hourly
1450,7,STAIRWAY-SCH-A-SPACE FUNCTION ZN,Zone Air Relative Humidity [%] !Daily [Value,Min,Hour,Minute,Max,Hour,Minute]
1489,1,STAIRWAY-SCH-B-SPACE FUNCTION ZN,Zone Air Temperature [C] !Hourly
1490,7,STAIRWAY-SCH-B-SPACE FUNCTION ZN,Zone Air Relative Humidity [%] !Daily [Value,Min,Hour,Minute,Max,Hour,Minute]
1529,1,STAIRWAY-SCH-C-SPACE FUNCTION ZN,Zone Air Temperature [C] !Hourly
1530,7,STAIRWAY-SCH-C-SPACE FUNCTION ZN,Zone Air Relative Humidity [%] !Daily [Value,Min,Hour,Minute,Max,Hour,Minute]
1569,1,STAIRWAY-SCH-D-SPACE FUNCTION ZN,Zone Air Temperature [C] !Hourly
1570,7,STAIRWAY-SCH-D-SPACE FUNCTION ZN,Zone Air Relative Humidity [%] !Daily [Value,Min,Hour,Minute,Max,Hour,Minute]
1609,1,STAIRWAY-SCH-E-SPACE FUNCTION ZN,Zone Air Temperature [C] !Hourly
1610,7,STAIRWAY-SCH-E-SPACE FUNCTION ZN,Zone Air Relative Humidity [%] !Daily [Value,Min,Hour,Minute,Max,Hour,Minute]
10,1,Electricity:Facility [J] !TimeStep
1760,1,DistrictCooling:Facility [J] !TimeStep
1723,1,DistrictHeating:Facility [J] !TimeStep
End of Data Dictionary
1,FORT MCMURRAY AP ANN CLG .4% CONDNS DB=>MWB,  56.65,-111.22,  -7.00, 369.10
2,1, 7,21, 0, 1, 0.00,10.00,SummerDesignDay
8,14.218136923962174
10,177470647.96216569
1723,11628321.852094699
1760,91731238.03310158
2,1, 7,21, 0, 1,10.00,20.00,SummerDesignDay
8,14.171982153293495
10,177470647.96216569
1723,12703685.498249967
1760,89037086.70155853
2,1, 7,21, 0, 1,20.00,30.00,SummerDesignDay
8,14.125744780286427
10,177470647.96216569
1723,13753190.749199205
1760,86537101.11853576
2,1, 7,21, 0, 1,30.00,40.00,SummerDesignDay
8,14.079436086331978
10,177470647.96216569
1723,14801451.385339342
1760,84061863.82584477
2,1, 7,21, 0, 1,40.00,50.00,SummerDesignDay
8,14.033050387896898
10,177470647.96216569
1723,15847673.062298863
1760,81602549.79580797
2,1, 7,21, 0, 1,50.00,60.00,SummerDesignDay
8,13.986581233564835
10,177470647.96216569
1723,16892585.053582387
1760,79177340.91671789
2,1, 7,21, 0, 1, 0.00,60.00,SummerDesignDay
849,22.381013334960789
889,24.80380169021025
929,23.135730509227924
969,21.058987997609589
1009,23.124475556094337
1049,24.115619943644803
1089,22.35860444459422
1129,22.926579060747686
1169,23.563872181876236
1209,22.00000004803633
1249,24.000000000000015
1289,24.000000000000005
1329,24.000000000000005
1369,24.00000000000003
1409,24.000000000000044
1449,24.013130252899875
1489,24.0
1529,24.678511908519366
1569,25.42887614920654
1609,25.20200794038981
2,1, 7,21, 0, 2, 0.00,10.00,SummerDesignDay
8,13.95555882260429
10,93388847.74981527
1723,25141606.368155417
1760,0.0
2,1, 7,21, 0, 2,10.00,20.00,SummerDesignDay
8,13.924507755336454
10,93388847.74981527
1723,27797605.92382111
1760,0.0
2,1, 7,21, 0, 2,20.00,30.00,SummerDesignDay
8,13.893416042989206
10,93388847.74981527
1723,29472397.615690248
1760,0.0
2,1, 7,21, 0, 2,30.00,40.00,SummerDesignDay
8,13.862289589689029
10,93388847.74981527
1723,31004414.862768353
1760,0.0
2,1, 7,21, 0, 2,40.00,50.00,SummerDesignDay
8,13.831134407608739
10,93388847.74981527
1723,32480912.34095037
1760,0.0
2,1, 7,21, 0, 2,50.00,60.00,SummerDesignDay
8,13.799938415548118
10,93388847.74981527
1723,33883058.58910126
1760,0.0
2,1, 7,21, 0, 2, 0.00,60.00,SummerDesignDay
849,22.004492756675395
889,24.582174749637816
929,22.220575960678514
969,20.536149797213523
1009,22.19419790868821
1049,23.7671227686471
1089,22.04503861114074
1129,22.517392674718356
1169,23.32071793028321
1209,22.00000000000364
1249,24.373714454389626
1289,24.342655383480805
1329,23.69288726890029
1369,23.269374073330899
1409,24.503197337551297
1449,23.896646378892144
1489,24.74089807412831
1529,24.590493587434755
1569,25.379566694867
1609,25.09010500925702
2,1, 7,21, 0, 3, 0.00,10.00,SummerDesignDay
8,13.776521671948676
10,27734394.174345636
1723,0.0
1760,0.0
2,1, 7,21, 0, 3,10.00,20.00,SummerDesignDay
8,13.753085235778466
10,27734394.174345636
1723,0.0
1760,0.0
2,1, 7,21, 0, 3,20.00,30.00,SummerDesignDay
8,13.729636002354969
10,27734394.174345636
1723,0.0
1760,0.0
2,1, 7,21, 0, 3,30.00,40.00,SummerDesignDay
8,13.706147375533054
10,27734394.174345636
1723,0.0
1760,0.0
2,1, 7,21, 0, 3,40.00,50.00,SummerDesignDay
8,13.682651961920304
10,27734394.174345636
1723,0.0
1760,0.0
2,1, 7,21, 0, 3,50.00,60.00,SummerDesignDay
8,13.659136670643687
10,27734394.174345636
1723,0.0
1760,0.0
2,1, 7,21, 0, 3, 0.00,60.00,SummerDesignDay
849,20.65403778664124
889,24.376058988673589
929,21.733815413806189
969,20.09910426590942
1009,21.690124040963608
1049,23.45957231821727
1089,21.79090600210212
1129,22.14080355969631
1169,23.115420167171977
1209,19.99487924761934
1249,23.010002948230853
1289,23.67046668430311
1329,22.893088686842704
1369,22.079892562953959
1409,23.703728321299964
1449,23.788726739296594
1489,24.904034555064574
1529,24.515603732853518
1569,25.277551198538999
1609,24.96623037722048
2,1, 7,21, 0, 4, 0.00,10.00,SummerDesignDay
8,13.63560137410855
10,27734394.174345636
1723,0.0
1760,0.0
2,1, 7,21, 0, 4,10.00,20.00,SummerDesignDay
8,13.612040802606578
10,27734394.174345636
1723,0.0
1760,0.0
2,1, 7,21, 0, 4,20.00,30.00,SummerDesignDay
8,13.58846620506876
10,27734394.174345636
1723,0.0
1760,0.0
2,1, 7,21, 0, 4,30.00,40.00,SummerDesignDay
8,13.56487178447336
10,27734394.174345636
1723,0.0
1760,0.0
2,1, 7,21, 0, 4,40.00,50.00,SummerDesignDay
8,13.541257354069103
10,27734394.174345636
1723,0.0
1760,0.0
2,1, 7,21, 0, 4,50.00,60.00,SummerDesignDay
8,13.517617463812285
10,27734394.174345636
1723,0.0
1760,0.0
2,1, 7,21, 0, 4, 0.00,60.00,SummerDesignDay
849,19.784038442385069
889,24.129776610926326
929,21.38071816007211
969,19.673655598707769
1009,21.317431256096709
1049,23.14255085515208
1089,21.535031214825137
1129,21.71121562529376
1169,22.880723787576359
1209,19.314144481060838
1249,21.856337749398148
1289,23.108444495338074
1329,22.397711384880556
1369,21.264928801914868
1409,23.05325836347878
1449,23.652885653614097
1489,24.665202807764826
1529,24.42941945909412
1569,25.121117582775697
1609,24.797605789150038
2,1, 7,21, 0, 5, 0.00,10.00,SummerDesignDay
8,13.50185415824011
10,27734394.174345636
1723,0.0
1760,0.0
2,1, 7,21, 0, 5,10.00,20.00,SummerDesignDay
8,13.486076034032447
10,27734394.174345636
1723,0.0
1760,0.0
2,1, 7,21, 0, 5,20.00,30.00,SummerDesignDay
8,13.470289340350983
10,27734394.174345636
1723,0.0
1760,0.0
2,1, 7,21, 0, 5,30.00,40.00,SummerDesignDay
8,13.454493322631063
10,27734394.174345636
1723,0.0
1760,0.0
2,1, 7,21, 0, 5,40.00,50.00,SummerDesignDay
8,13.438688835118548
10,27734394.174345636
1723,0.0
1760,0.0
2,1, 7,21, 0, 5,50.00,60.00,SummerDesignDay
8,13.422888173889437
10,27734394.174345636
1723,0.0
1760,0.0
2,1, 7,21, 0, 5, 0.00,60.00,SummerDesignDay
849,19.582132624439415
889,23.891795599250896
929,21.075624270211894
969,19.377151571461828
1009,21.080403444197669
1049,22.868706867687437
1089,21.320893727425799
1129,21.52518662684029
1169,22.714797787947849
1209,19.02350525866375
1249,21.46775960872914
1289,22.863795063245268
1329,22.154560156891049
1369,20.8733740330113
1409,22.78440175716109
1449,23.543426463458759
1489,24.500462535612728
1529,24.345899818565007
1569,24.95956335407457
1609,24.738278973409576
2,1, 7,21, 0, 6, 0.00,10.00,SummerDesignDay
8,13.438688835118548
10,27734394.174345636
1723,0.0
1760,0.0
2,1, 7,21, 0, 6,10.00,20.00,SummerDesignDay
8,13.454493322631063
10,27734394.174345636
1723,0.0
1760,0.0
2,1, 7,21, 0, 6,20.00,30.00,SummerDesignDay
8,13.470289340350983
10,27734394.174345636
1723,0.0
1760,0.0
2,1, 7,21, 0, 6,30.00,40.00,SummerDesignDay
8,13.486076034032447
10,27734394.174345636
1723,0.0
1760,0.0
2,1, 7,21, 0, 6,40.00,50.00,SummerDesignDay
8,13.50185415824011
10,27734394.174345636
1723,0.0
1760,0.0
2,1, 7,21, 0, 6,50.00,60.00,SummerDesignDay
8,13.517617463812285
10,27734394.174345636
1723,0.0
1760,0.0
2,1, 7,21, 0, 6, 0.00,60.00,SummerDesignDay
849,20.193353558668809
889,23.718007002333996
929,20.923602357975335
969,19.40356289506199
1009,21.24378185461789
1049,22.6901596973305
1089,21.20970762962807
1129,21.78489987693655
1169,22.667988891552669
1209,18.9317161377881
1249,21.459115316248245
1289,22.77360616579557
1329,22.027506818725997
1369,20.862474199856867
1409,22.625784514920566
1449,23.471671768477348
1489,24.38653702933632
1529,24.28773212860909
1569,24.840102976522834
1609,25.118543309882239
2,1, 7,21, 0, 7, 0.00,10.00,SummerDesignDay
8,13.572736920571789
10,27734394.174345636
1723,0.0
1760,0.0
2,1, 7,21, 0, 7,10.00,20.00,SummerDesignDay
8,13.627748229152554
10,27734394.174345636
1723,0.0
1760,0.0
2,1, 7,21, 0, 7,20.00,30.00,SummerDesignDay
8,13.682651961920304
10,27734394.174345636
1723,0.0
1760,0.0
2,1, 7,21, 0, 7,30.00,40.00,SummerDesignDay
8,13.737448093244995
10,27734394.174345636
1723,0.0
1760,0.0
2,1, 7,21, 0, 7,40.00,50.00,SummerDesignDay
8,13.792137011831216
10,27734394.174345636
1723,0.0
1760,0.0
2,1, 7,21, 0, 7,50.00,60.00,SummerDesignDay
8,13.846719282840333
10,27734394.174345636
1723,0.0
1760,0.0
2,1, 7,21, 0, 7, 0.00,60.00,SummerDesignDay
849,21.190239487877343
889,23.680905125609937
929,21.051099449643755
969,19.870231855981478
1009,21.6839551415547
1049,22.676742185671956
1089,21.301734777521664
1129,22.089665407630834
1169,22.630795509232529
1209,19.202339437430984
1249,21.862947376225326
1289,22.74374273789574
1329,22.110658477063998
1369,21.270632032942456
1409,22.651891600147058
1449,23.464223948317544
1489,24.33711843640177
1529,24.284053524161594
1569,24.787112641842826
1609,25.615592353637266
2,1, 7,21, 0, 8, 0.00,10.00,SummerDesignDay
8,13.978831900527043
10,35421830.193931248
1723,0.0
1760,56079189.67777114
2,1, 7,21, 0, 8,10.00,20.00,SummerDesignDay
8,14.110321014287419
10,35421830.193931248
1723,0.0
1760,11538018.266070057
2,1, 7,21, 0, 8,20.00,30.00,SummerDesignDay
8,14.241191509616986
10,35421830.193931248
1723,0.0
1760,27160416.39713045
2,1, 7,21, 0, 8,30.00,40.00,SummerDesignDay
8,14.371447531304272
10,35421830.193931248
1723,0.0
1760,24016224.84887369
2,1, 7,21, 0, 8,40.00,50.00,SummerDesignDay
8,14.501093766564925
10,35421830.193931248
1723,0.0
1760,25224078.836396129
2,1, 7,21, 0, 8,50.00,60.00,SummerDesignDay
8,14.630134792273804
10,35421830.193931248
1723,0.0
1760,26296390.01048697
2,1, 7,21, 0, 8, 0.00,60.00,SummerDesignDay
849,22.677233271107935
889,23.953660328325556
929,21.63478684758444
969,21.04262832423541
1009,22.486119583852628
1049,22.9304209529987
1089,21.72054482863898
1129,22.993356963011949
1169,22.86190678997943
1209,20.0675187592896
1249,22.88209163866887
1289,23.038960511849866
1329,22.504066273270085
1369,22.306840281118697
1409,22.971015456347119
1449,23.704065358598045
1489,24.390284041199267
1529,23.98022070412033
1569,23.95558955756925
1609,23.927116201655357
2,1, 7,21, 0, 9, 0.00,10.00,SummerDesignDay
8,14.773641492809972
10,101046659.0127191
1723,0.0
1760,64131879.702941399
2,1, 7,21, 0, 9,10.00,20.00,SummerDesignDay
8,14.91640948124148
10,101046659.0127191
1723,0.0
1760,78750915.9967433
2,1, 7,21, 0, 9,20.00,30.00,SummerDesignDay
8,15.05843890714102
10,101046659.0127191
1723,0.0
1760,98316427.4995738
2,1, 7,21, 0, 9,30.00,40.00,SummerDesignDay
8,15.199735893563798
10,101046659.0127191
1723,0.0
1760,117026480.55097389
2,1, 7,21, 0, 9,40.00,50.00,SummerDesignDay
8,15.340306256439395
10,101046659.0127191
1723,0.0
1760,136857852.26614545
2,1, 7,21, 0, 9,50.00,60.00,SummerDesignDay
8,15.48015101768072
10,101046659.0127191
1723,0.0
1760,162495113.3031181
2,1, 7,21, 0, 9, 0.00,60.00,SummerDesignDay
849,23.975232760796336
889,23.99999999997222
929,22.73710141434333
969,23.322907869048536
1009,23.681104074223403
1049,23.805279574913027
1089,22.96552486381427
1129,23.998660311812487
1169,23.847891005449936
1209,21.539370248316318
1249,23.980462058079796
1289,23.714266191443099
1329,23.262374234270437
1369,23.827837942487805
1409,23.64650830782961
1449,23.9972028015152
1489,23.975907091314796
1529,24.0
1569,23.999999999999998
1609,23.999999999998207
2,1, 7,21, 0,10, 0.00,10.00,SummerDesignDay
8,15.60467292907716
10,215170209.18841846
1723,0.0
1760,250410957.1943471
2,1, 7,21, 0,10,10.00,20.00,SummerDesignDay
8,15.72862731650033
10,215170209.18841846
1723,0.0
1760,289384480.10592219
2,1, 7,21, 0,10,20.00,30.00,SummerDesignDay
8,15.852017409284228
10,215170209.18841846
1723,0.0
1760,310573893.99878099
2,1, 7,21, 0,10,30.00,40.00,SummerDesignDay
8,15.974848118364367
10,215170209.18841846
1723,0.0
1760,330621609.5640985
2,1, 7,21, 0,10,40.00,50.00,SummerDesignDay
8,16.097123145563505
10,215170209.18841846
1723,0.0
1760,351978414.5088201
2,1, 7,21, 0,10,50.00,60.00,SummerDesignDay
8,16.218846351168599
10,215170209.18841846
1723,0.0
1760,375619633.0732442
2,1, 7,21, 0,10, 0.00,60.00,SummerDesignDay
849,23.999999998763149
889,23.999999999999984
929,24.015215293439554
969,23.999980959339529
1009,24.843256802476874
1049,23.99999999152486
1089,23.948345599285969
1129,23.99999999999994
1169,23.99999999973569
1209,23.280830208312059
1249,23.999999999995155
1289,23.9999798636763
1329,23.977280982439724
1369,23.99999999832718
1409,23.999856065859477
1449,24.00000000000001
1489,23.99999999999999
1529,24.000000000000005
1569,24.00000000000001
1609,24.000000000000015
2,1, 7,21, 0,11, 0.00,10.00,SummerDesignDay
8,16.325793027093189
10,249662422.1181568
1723,0.0
1760,429889734.44863978
2,1, 7,21, 0,11,10.00,20.00,SummerDesignDay
8,16.432322158488288
10,249662422.1181568
1723,0.0
1760,450722718.13582888
2,1, 7,21, 0,11,20.00,30.00,SummerDesignDay
8,16.538424180249178
10,249662422.1181568
1723,0.0
1760,469708107.038422
2,1, 7,21, 0,11,30.00,40.00,SummerDesignDay
8,16.644108396469087
10,249662422.1181568
1723,0.0
1760,488182856.73090317
2,1, 7,21, 0,11,40.00,50.00,SummerDesignDay
8,16.749376736593655
10,249662422.1181568
1723,0.0
1760,506246402.8883958
2,1, 7,21, 0,11,50.00,60.00,SummerDesignDay
8,16.854232613237156
10,249662422.1181568
1723,0.0
1760,524013719.65005508
2,1, 7,21, 0,11, 0.00,60.00,SummerDesignDay
849,24.000000000000005
889,24.0
929,25.422714532637774
969,23.999999999981566
1009,25.851631090246515
1049,24.000000000000005
1089,23.9999999979366
1129,24.0
1169,24.00000000000003
1209,23.9936828917935
1249,24.000000000000044
1289,23.99999999999982
1329,23.999999999761604
1369,24.000000000000058
1409,23.999999999998676
1449,24.00000000000001
1489,24.00000000000001
1529,24.000000000000005
1569,24.000000000000044
1609,24.0
2,1, 7,21, 0,12, 0.00,10.00,SummerDesignDay
8,16.92390823520069
10,282489648.90589156
1723,0.0
1760,581159430.0852403
2,1, 7,21, 0,12,10.00,20.00,SummerDesignDay
8,16.99340178950456
10,282489648.90589156
1723,0.0
1760,597938812.6869425
2,1, 7,21, 0,12,20.00,30.00,SummerDesignDay
8,17.06272006743463
10,282489648.90589156
1723,0.0
1760,612527779.9050429
2,1, 7,21, 0,12,30.00,40.00,SummerDesignDay
8,17.131853229172639
10,282489648.90589156
1723,0.0
1760,626686236.4124761
2,1, 7,21, 0,12,40.00,50.00,SummerDesignDay
8,17.200807172194087
10,282489648.90589156
1723,0.0
1760,640049623.5166031
2,1, 7,21, 0,12,50.00,60.00,SummerDesignDay
8,17.269582116758607
10,282489648.90589156
1723,0.0
1760,652878396.6547507
2,1, 7,21, 0,12, 0.00,60.00,SummerDesignDay
849,24.000000000000015
889,23.999999999999987
929,26.62085996543421
969,23.999999999999998
1009,26.689805114804704
1049,24.00000000000001
1089,24.0
1129,24.00000000000001
1169,24.00000000000001
1209,23.999992931199747
1249,24.00000000000009
1289,24.000000000000026
1329,24.000000000000044
1369,24.000000000000076
1409,24.00000000000004
1449,24.00000000000001
1489,24.0
1529,24.00000000000001
1569,24.000000000000026
1609,24.000000000000015
2,1, 7,21, 0,13, 0.00,10.00,SummerDesignDay
8,17.32447360221357
10,282489648.90589156
1723,0.0
1760,705591763.2678126
2,1, 7,21, 0,13,10.00,20.00,SummerDesignDay
8,17.379251291230806
10,282489648.90589156
1723,0.0
1760,719254381.3418523
2,1, 7,21, 0,13,20.00,30.00,SummerDesignDay
8,17.433921312061729
10,282489648.90589156
1723,0.0
1760,731932093.6364124
2,1, 7,21, 0,13,30.00,40.00,SummerDesignDay
8,17.488473222557489
10,282489648.90589156
1723,0.0
1760,743822899.7155666
2,1, 7,21, 0,13,40.00,50.00,SummerDesignDay
8,17.542913447755134
10,282489648.90589156
1723,0.0
1760,754619079.3350306
2,1, 7,21, 0,13,50.00,60.00,SummerDesignDay
8,17.59724609886134
10,282489648.90589156
1723,0.0
1760,764553712.7863097
2,1, 7,21, 0,13, 0.00,60.00,SummerDesignDay
849,24.000000000000047
889,24.000000000000015
929,27.48730700248383
969,24.000000000000026
1009,27.491128634377778
1049,24.000000000000019
1089,24.000000000000015
1129,24.000000000000019
1169,24.00000000000003
1209,23.999999992391179
1249,23.999999999999984
1289,24.0
1329,24.000000000000015
1369,24.000000000000069
1409,24.000000000000015
1449,24.000000000000015
1489,24.0
1529,24.000000000000015
1569,24.00000000000003
1609,24.00000000000001
2,1, 7,21, 0,14, 0.00,10.00,SummerDesignDay
8,17.6311450462694
10,282489648.90589156
1723,0.0
1760,760711618.1661329
2,1, 7,21, 0,14,10.00,20.00,SummerDesignDay
8,17.665000449016245
10,282489648.90589156
1723,0.0
1760,766264020.7103614
2,1, 7,21, 0,14,20.00,30.00,SummerDesignDay
8,17.698812743128934
10,282489648.90589156
1723,0.0
1760,771885354.5422703
2,1, 7,21, 0,14,30.00,40.00,SummerDesignDay
8,17.732582050940107
10,282489648.90589156
1723,0.0
1760,777600012.852704
2,1, 7,21, 0,14,40.00,50.00,SummerDesignDay
8,17.766307345121004
10,282489648.90589156
1723,0.0
1760,783296293.1064789
2,1, 7,21, 0,14,50.00,60.00,SummerDesignDay
8,17.79999023167558
10,282489648.90589156
1723,0.0
1760,788909189.8121063
2,1, 7,21, 0,14, 0.00,60.00,SummerDesignDay
849,24.00000000000009
889,24.000000000000033
929,28.133702176168666
969,24.000000000000069
1009,28.06840721647917
1049,24.000000000000015
1089,23.99999999999999
1129,23.999999999999984
1169,24.00000000000003
1209,23.99999999999245
1249,24.000000000000019
1289,24.000000000000019
1329,24.0
1369,23.999999999999969
1409,23.999999999999969
1449,24.000000000000005
1489,24.00000000000001
1529,23.999999999999998
1569,24.00000000000003
1609,24.00000000000001
2,1, 7,21, 0,15, 0.00,10.00,SummerDesignDay
8,17.79999023167558
10,282489648.90589156
1723,0.0
1760,957333585.1312537
2,1, 7,21, 0,15,10.00,20.00,SummerDesignDay
8,17.79999023167558
10,282489648.90589156
1723,0.0
1760,759959046.5741819
2,1, 7,21, 0,15,20.00,30.00,SummerDesignDay
8,17.79999023167558
10,282489648.90589156
1723,0.0
1760,864828204.1557653
2,1, 7,21, 0,15,30.00,40.00,SummerDesignDay
8,17.79999023167558
10,282489648.90589156
1723,0.0
1760,863242094.7988075
2,1, 7,21, 0,15,40.00,50.00,SummerDesignDay
8,17.79999023167558
10,282489648.90589156
1723,0.0
1760,854830930.3024982
2,1, 7,21, 0,15,50.00,60.00,SummerDesignDay
8,17.79999023167558
10,282489648.90589156
1723,0.0
1760,855808320.0757994
2,1, 7,21, 0,15, 0.00,60.00,SummerDesignDay
849,24.00000000000001
889,24.000000000000019
929,23.89755112636756
969,24.000000000000015
1009,23.88720877029498
1049,24.000000000000019
1089,24.000000000000005
1129,24.000000000000097
1169,24.0
1209,23.999999999999998
1249,24.000000000000069
1289,23.999999999999976
1329,24.00000000000003
1369,24.000000000000033
1409,24.00000000000004
1449,24.000000000000005
1489,24.0
1529,24.000000000000019
1569,23.99999999999999
1609,24.00000000000001
2,1, 7,21, 0,16, 0.00,10.00,SummerDesignDay
8,17.759562446305357
10,301141993.6706592
1723,0.0
1760,827934687.429428
2,1, 7,21, 0,16,10.00,20.00,SummerDesignDay
8,17.71907809634183
10,301141993.6706592
1723,0.0
1760,819529279.6260837
2,1, 7,21, 0,16,20.00,30.00,SummerDesignDay
8,17.67853788661001
10,301141993.6706592
1723,0.0
1760,810861437.3209455
2,1, 7,21, 0,16,30.00,40.00,SummerDesignDay
8,17.63791796367351
10,301141993.6706592
1723,0.0
1760,802125667.4811878
2,1, 7,21, 0,16,40.00,50.00,SummerDesignDay
8,17.59724609886134
10,301141993.6706592
1723,0.0
1760,793469599.1821575
2,1, 7,21, 0,16,50.00,60.00,SummerDesignDay
8,17.55650676726033
10,301141993.6706592
1723,0.0
1760,784782057.9590939
2,1, 7,21, 0,16, 0.00,60.00,SummerDesignDay
849,24.000000000000033
889,24.00000000000004
929,23.999998934156243
969,24.000000000000058
1009,23.999998706650805
1049,24.0
1089,24.000000000000019
1129,24.000000000000047
1169,24.00000000000004
1209,24.000000000000005
1249,24.00000000000007
1289,24.00000000000008
1329,24.000000000000019
1369,24.000000000000069
1409,23.99999999999997
1449,24.000000000000005
1489,24.000000000000015
1529,24.0
1569,24.0
1609,24.00000000000003
2,1, 7,21, 0,17, 0.00,10.00,SummerDesignDay
8,17.50209486331892
10,299477007.52865567
1723,0.0
1760,775355471.0407728
2,1, 7,21, 0,17,10.00,20.00,SummerDesignDay
8,17.447570789624618
10,299477007.52865567
1723,0.0
1760,764174285.1297157
2,1, 7,21, 0,17,20.00,30.00,SummerDesignDay
8,17.392929544208135
10,299477007.52865567
1723,0.0
1760,752800542.4599621
2,1, 7,21, 0,17,30.00,40.00,SummerDesignDay
8,17.33818013976614
10,299477007.52865567
1723,0.0
1760,741333308.4834465
2,1, 7,21, 0,17,40.00,50.00,SummerDesignDay
8,17.283317298559309
10,299477007.52865567
1723,0.0
1760,729704879.3335312
2,1, 7,21, 0,17,50.00,60.00,SummerDesignDay
8,17.22833552437677
10,299477007.52865567
1723,0.0
1760,717910810.7140139
2,1, 7,21, 0,17, 0.00,60.00,SummerDesignDay
849,24.000000000000058
889,24.000000000000055
929,23.999999999958793
969,24.000000000000055
1009,23.99999999994903
1049,24.000000000000015
1089,24.00000000000001
1129,24.000000000000026
1169,24.00000000000004
1209,24.00000000000001
1249,24.00000000000001
1289,24.000000000000047
1329,24.000000000000005
1369,24.00000000000006
1409,24.000000000000019
1449,24.0
1489,24.000000000000047
1529,24.000000000000019
1569,24.000000000000005
1609,24.000000000000026
2,1, 7,21, 0,18, 0.00,10.00,SummerDesignDay
8,17.159453019160176
10,295187043.2336229
1723,0.0
1760,708119812.4977437
2,1, 7,21, 0,18,10.00,20.00,SummerDesignDay
8,17.090391773337136
10,295187043.2336229
1723,0.0
1760,693962975.4889058
2,1, 7,21, 0,18,20.00,30.00,SummerDesignDay
8,17.021151077964786
10,295187043.2336229
1723,0.0
1760,679550346.8973758
2,1, 7,21, 0,18,30.00,40.00,SummerDesignDay
8,16.951729380464653
10,295187043.2336229
1723,0.0
1760,665180936.0690355
2,1, 7,21, 0,18,40.00,50.00,SummerDesignDay
8,16.882126503829249
10,295187043.2336229
1723,0.0
1760,650674463.533053
2,1, 7,21, 0,18,50.00,60.00,SummerDesignDay
8,16.812341807494034
10,295187043.2336229
1723,0.0
1760,635384551.4894141
2,1, 7,21, 0,18, 0.00,60.00,SummerDesignDay
849,24.000000000000005
889,23.99999999999999
929,23.999999999999976
969,24.0
1009,24.0
1049,24.00000000000003
1089,24.000000000000015
1129,24.000000000000005
1169,24.0
1209,24.000000000000005
1249,24.000000000000047
1289,24.000000000000019
1329,23.999999999999998
1369,24.000000000000015
1409,24.000000000000047
1449,24.00000000000001
1489,24.00000000000003
1529,24.00000000000001
1569,24.000000000000019
1609,24.000000000000015
2,1, 7,21, 0,19, 0.00,10.00,SummerDesignDay
8,16.707321072823203
10,292284567.39671799
1723,0.0
1760,643228796.5312955
2,1, 7,21, 0,19,10.00,20.00,SummerDesignDay
8,16.601881826644556
10,292284567.39671799
1723,0.0
1760,624493753.6672435
2,1, 7,21, 0,19,20.00,30.00,SummerDesignDay
8,16.496030555252849
10,292284567.39671799
1723,0.0
1760,605236899.2649173
2,1, 7,21, 0,19,30.00,40.00,SummerDesignDay
8,16.389760181474104
10,292284567.39671799
1723,0.0
1760,585061932.0268637
2,1, 7,21, 0,19,40.00,50.00,SummerDesignDay
8,16.283067654262039
10,292284567.39671799
1723,0.0
1760,563655418.8175697
2,1, 7,21, 0,19,50.00,60.00,SummerDesignDay
8,16.17595057957811
10,292284567.39671799
1723,0.0
1760,542127929.2197126
2,1, 7,21, 0,19, 0.00,60.00,SummerDesignDay
849,24.000000000000015
889,24.00000000000001
929,23.999999999999969
969,24.000000000000019
1009,24.00000000000003
1049,23.999999999999948
1089,24.000000000000015
1129,24.00000000000008
1169,24.00000000000003
1209,24.000000000000015
1249,23.999999999999998
1289,24.00000000000004
1329,24.000000000000015
1369,24.000000000000019
1409,23.999999999999984
1449,24.0
1489,24.00000000000004
1529,24.000000000000015
1569,24.00000000000003
1609,24.000000000000005
2,1, 7,21, 0,20, 0.00,10.00,SummerDesignDay
8,16.097123145563505
10,259710838.5010598
1723,0.0
1760,538620725.016846
2,1, 7,21, 0,20,10.00,20.00,SummerDesignDay
8,16.018070242471564
10,259710838.5010598
1723,0.0
1760,522598171.6419068
2,1, 7,21, 0,20,20.00,30.00,SummerDesignDay
8,15.938779752340516
10,259710838.5010598
1723,0.0
1760,506589538.25652316
2,1, 7,21, 0,20,30.00,40.00,SummerDesignDay
8,15.85926152575189
10,259710838.5010598
1723,0.0
1760,489492453.1455367
2,1, 7,21, 0,20,40.00,50.00,SummerDesignDay
8,15.779503718563929
10,259710838.5010598
1723,0.0
1760,471770222.0855203
2,1, 7,21, 0,20,50.00,60.00,SummerDesignDay
8,15.699515709672767
10,259710838.5010598
1723,0.0
1760,453615540.84408369
2,1, 7,21, 0,20, 0.00,60.00,SummerDesignDay
849,24.000000000000044
889,24.000000000000005
929,23.999999999999998
969,24.00000000000001
1009,24.0
1049,23.999999999999976
1089,24.00000000000001
1129,24.00000000000003
1169,24.000000000000019
1209,24.0
1249,24.000000000000044
1289,24.00000000000001
1329,24.000000000000026
1369,23.999999999999984
1409,24.00000000000004
1449,24.00000000000001
1489,24.00000000000001
1529,24.00000000000001
1569,24.00000000000001
1609,25.240772071796007
2,1, 7,21, 0,21, 0.00,10.00,SummerDesignDay
8,15.63389147320404
10,250404165.95826686
1723,0.0
1760,432805061.25791946
2,1, 7,21, 0,21,10.00,20.00,SummerDesignDay
8,15.56810827419793
10,250404165.95826686
1723,0.0
1760,415597586.200488
2,1, 7,21, 0,21,20.00,30.00,SummerDesignDay
8,15.502170882753524
10,250404165.95826686
1723,0.0
1760,398571065.6167717
2,1, 7,21, 0,21,30.00,40.00,SummerDesignDay
8,15.436068032613852
10,250404165.95826686
1723,0.0
1760,383456118.27769568
2,1, 7,21, 0,21,40.00,50.00,SummerDesignDay
8,15.369804371206009
10,250404165.95826686
1723,0.0
1760,369029004.84671279
2,1, 7,21, 0,21,50.00,60.00,SummerDesignDay
8,15.303384603594449
10,250404165.95826686
1723,0.0
1760,353999616.4702111
2,1, 7,21, 0,21, 0.00,60.00,SummerDesignDay
849,23.999999999999998
889,24.00000000000001
929,24.000000000000069
969,24.00000000000003
1009,23.999999999999934
1049,24.00000000000001
1089,24.000000000000005
1129,24.0
1169,24.000000000000026
1209,23.920589994820906
1249,24.000000000000047
1289,24.000000000000019
1329,24.0
1369,24.000000000000055
1409,24.000000000000069