Program Version,EnergyPlus, Version 8.9.0-eba93e8e1b, YMD=2019.03.28 13:14
1,5,Environment Title[],Latitude[deg],Longitude[deg],Time Zone[],Elevation[m]
2,8,Day of Simulation[],Month[],Day of Month[],DST Indicator[1=yes 0=no],Hour[],StartMinute[],EndMinute[],DayType
3,5,Cumulative Day of Simulation[],Month[],Day of Month[],DST Indicator[1=yes 0=no],DayType  ! When Daily Report Variables Requested
4,2,Cumulative Days of Simulation[],Month[]  ! When Monthly Report Variables Requested
5,1,Cumulative Days of Simulation[] ! When Run Period Report Variables Requested
6,1,Calendar Year of Simulation[] ! When Annual Report Variables Requested
7,9,Environment,Site Outdoor Air Drybulb Temperature [C] !Monthly [Value,Min,Day,Hour,Minute,Max,Day,Hour,Minute]
8,1,Environment,Site Outdoor Air Wetbulb Temperature [C] !TimeStep
914,1,HOSPITAL - MEDICAL SUPPLY - OCCSENS-SPACE FUNCTION ZN,Zone Air Temperature [C] !Hourly
915,7,HOSPITAL - MEDICAL SUPPLY - OCCSENS-SPACE FUNCTION ZN,Zone Air Relative Humidity [%] !Daily [Value,Min,Hour,Minute,Max,Hour,Minute]
954,1,HOSPITAL - NURSERY-SPACE FUNCTION ZN,Zone Air Temperature [C] !Hourly
955,7,HOSPITAL - NURSERY-SPACE FUNCTION ZN,Zone Air Relative Humidity [%] !Daily [Value,Min,Hour,Minute,Max,Hour,Minute]
994,1,HOSPITAL - NURSES STATION-SPACE FUNCTION ZN,Zone Air Temperature [C] !Hourly
995,7,HOSPITAL - NURSES STATION-SPACE FUNCTION ZN,Zone Air Relative Humidity [%] !Daily [Value,Min,Hour,Minute,Max,Hour,Minute]
1034,1,HOSPITAL - OPERATING ROOM-SPACE FUNCTION ZN,Zone Air Temperature [C] !Hourly
1035,7,HOSPITAL - OPERATING ROOM-SPACE FUNCTION ZN,Zone Air Relative Humidity [%] !Daily [Value,Min,Hour,Minute,Max,Hour,Minute]
1074,1,HOSPITAL - PATIENT ROOM-SPACE FUNCTION ZN,Zone Air Temperature [C] !Hourly
1075,7,HOSPITAL - PATIENT ROOM-SPACE FUNCTION ZN,Zone Air Relative Humidity [%] !Daily [Value,Min,Hour,Minute,Max,Hour,Minute]
1114,1,HOSPITAL - PHARMACY-SPACE FUNCTION ZN,Zone Air Temperature [C] !Hourly
1115,7,HOSPITAL - PHARMACY-SPACE FUNCTION ZN,Zone Air Relative Humidity [%] !Daily [Value,Min,Hour,Minute,Max,Hour,Minute]
1154,1,HOSPITAL - PHYSICAL THERAPY-SPACE FUNCTION ZN,Zone Air Temperature [C] !Hourly
1155,7,HOSPITAL - PHYSICAL THERAPY-SPACE FUNCTION ZN,Zone Air Relative Humidity [%] !Daily [Value,Min,Hour,Minute,Max,Hour,Minute]
1194,1,HOSPITAL - RADIOLOGY/IMAGING-SPACE FUNCTION ZN,Zone Air Temperature [C] !Hourly
1195,7,HOSPITAL - RADIOLOGY/IMAGING-SPACE FUNCTION ZN,Zone Air Relative Humidity [%] !Daily [Value,Min,Hour,Minute,Max,Hour,Minute]
1234,1,HOSPITAL - RECOVERY-SPACE FUNCTION ZN,Zone Air Temperature [C] !Hourly
1235,7,HOSPITAL - RECOVERY-SPACE FUNCTION ZN,Zone Air Relative Humidity [%] !Daily [Value,Min,Hour,Minute,Max,Hour,Minute]
1274,1,HOTEL/MOTEL - DINING-SPACE FUNCTION ZN,Zone Air Temperature [C] !Hourly
1275,7,HOTEL/MOTEL - DINING-SPACE FUNCTION ZN,Zone Air Relative Humidity [%] !Daily [Value,Min,Hour,Minute,Max,Hour,Minute]
1314,1,HOTEL/MOTEL - LOBBY-SPACE FUNCTION ZN,Zone Air Temperature [C] !Hourly
1315,7,HOTEL/MOTEL - LOBBY-SPACE FUNCTION ZN,Zone Air Relative Humidity [%] !Daily [Value,Min,Hour,Minute,Max,Hour,Minute]
1354,1,HOTEL/MOTEL - ROOMS-SPACE FUNCTION ZN,Zone Air Temperature [C] !Hourly
1355,7,HOTEL/MOTEL - ROOMS-SPACE FUNCTION ZN,Zone Air Relative Humidity [%] !Daily [Value,Min,Hour,Minute,Max,Hour,Minute]
1394,1,HWAY LODGING - DINING-SPACE FUNCTION ZN,Zone Air Temperature [C] !Hourly
1395,7,HWAY LODGING - DINING-SPACE FUNCTION ZN,Zone Air Relative Humidity [%] !Daily [Value,Min,Hour,Minute,Max,Hour,Minute]
1434,1,HWAY LODGING - ROOMS-SPACE FUNCTION ZN,Zone Air Temperature [C] !Hourly
1435,7,HWAY LODGING - ROOMS-SPACE FUNCTION ZN,Zone Air Relative Humidity [%] !Daily [Value,Min,Hour,Minute,Max,Hour,Minute]
1474,1,LAB - CLASSROOMS-SPACE FUNCTION ZN,Zone Air Temperature [C] !Hourly
1475,7,LAB - CLASSROOMS-SPACE FUNCTION ZN,Zone Air Relative Humidity [%] !Daily [Value,Min,Hour,Minute,Max,Hour,Minute]
1514,1,LAB - RESEARCH-SPACE FUNCTION ZN,Zone Air Temperature [C] !Hourly
1515,7,LAB - RESEARCH-SPACE FUNCTION ZN,Zone Air Relative Humidity [%] !Daily [Value,Min,Hour,Minute,Max,Hour,Minute]
1554,1,LIBRARY - CATALOGING-SPACE FUNCTION ZN,Zone Air Temperature [C] !Hourly
1555,7,LIBRARY - CATALOGING-SPACE FUNCTION ZN,Zone Air Relative Humidity [%] !Daily [Value,Min,Hour,Minute,Max,Hour,Minute]
1594,1,LIBRARY - READING-SPACE FUNCTION ZN,Zone Air Temperature [C] !Hourly
1595,7,LIBRARY - READING-SPACE FUNCTION ZN,Zone Air Relative Humidity [%] !Daily [Value,Min,Hour,Minute,Max,Hour,Minute]
1634,1,LIBRARY - STACKS-SPACE FUNCTION ZN,Zone Air Temperature [C] !Hourly
1635,7,LIBRARY - STACKS-SPACE FUNCTION ZN,Zone Air Relative Humidity [%] !Daily [Value,Min,Hour,Minute,Max,Hour,Minute]
1674,1,LOBBY - ELEVATOR-SPACE FUNCTION ZN,Zone Air Temperature [C] !Hourly
1675,7,LOBBY - ELEVATOR-SPACE FUNCTION ZN,Zone Air Relative Humidity [%] !Daily [Value,Min,Hour,Minute,Max,Hour,Minute]
10,1,Electricity:Facility [J] !TimeStep
1825,1,DistrictCooling:Facility [J] !TimeStep
1788,1,DistrictHeating:Facility [J] !TimeStep
End of Data Dictionary
1,FORT MCMURRAY AP ANN CLG .4% CONDNS DB=>MWB,  56.65,-111.22,  -7.00, 369.10
2,1, 7,21, 0, 1, 0.00,10.00,SummerDesignDay
8,14.218136923962174
10,205371915.7945477
1788,0.0
1825,100503742.64806214
2,1, 7,21, 0, 1,10.00,20.00,SummerDesignDay
8,14.171982153293495
10,205371915.7945477
1788,0.0
1825,96496485.7711852
2,1, 7,21, 0, 1,20.00,30.00,SummerDesignDay
8,14.125744780286427
10,205371915.7945477
1788,0.0
1825,92710023.80887737
2,1, 7,21, 0, 1,30.00,40.00,SummerDesignDay
8,14.079436086331978
10,205371915.7945477
1788,0.0
1825,88933559.68245237
2,1, 7,21, 0, 1,40.00,50.00,SummerDesignDay
8,14.033050387896898
10,205371915.7945477
1788,1172406.4530438164
1825,85165674.40597952
2,1, 7,21, 0, 1,50.00,60.00,SummerDesignDay
8,13.986581233564835
10,205371915.7945477
1788,3016015.192558727
1825,81401949.17280752
2,1, 7,21, 0, 1, 0.00,60.00,SummerDesignDay
914,23.999999999999998
954,24.0
994,24.000000000000019
1034,23.571366141843656
1074,24.0
1114,21.62310673993406
1154,22.972446274660244
1194,24.00000000000006
1234,22.832051552615213
1274,22.152988149203336
1314,24.000000000000033
1354,23.999999999999998
1394,22.105176227017627
1434,23.999999999999998
1474,22.26945191743941
1514,22.44829091898917
1554,23.997241811238756
1594,24.813549396988667
1634,24.239698020516206
1674,21.507628123671866
2,1, 7,21, 0, 2, 0.00,10.00,SummerDesignDay
8,13.95555882260429
10,192884519.7190264
1788,10404253.387083352
1825,76940364.12274367
2,1, 7,21, 0, 2,10.00,20.00,SummerDesignDay
8,13.924507755336454
10,192884519.7190264
1788,11867711.31672626
1825,73872317.33177476
2,1, 7,21, 0, 2,20.00,30.00,SummerDesignDay
8,13.893416042989206
10,192884519.7190264
1788,12928533.962574767
1825,70893981.38474627
2,1, 7,21, 0, 2,30.00,40.00,SummerDesignDay
8,13.862289589689029
10,192884519.7190264
1788,13962480.226619818
1825,67927375.5074934
2,1, 7,21, 0, 2,40.00,50.00,SummerDesignDay
8,13.831134407608739
10,192884519.7190264
1788,14969836.202862107
1825,64972820.834970708
2,1, 7,21, 0, 2,50.00,60.00,SummerDesignDay
8,13.799938415548118
10,192884519.7190264
1788,15962785.584897083
1825,62371792.500218357
2,1, 7,21, 0, 2, 0.00,60.00,SummerDesignDay
914,23.999999999999948
954,24.00000000000001
994,23.998122759890028
1034,23.09785050374167
1074,24.00000000000004
1114,21.128960962108939
1154,22.564513745499437
1194,24.000000000000044
1234,22.43051898915307
1274,22.00016516438978
1314,24.000000000000019
1354,24.000000000000015
1394,22.000045809311819
1434,24.0
1474,21.891753485609404
1514,22.055362646754735
1554,23.78777776044863
1594,24.580786216117674
1634,23.975357154401939
1674,21.083932776280887
2,1, 7,21, 0, 3, 0.00,10.00,SummerDesignDay
8,13.776521671948676
10,183749595.7418347
1788,0.0
1825,60208217.53239147
2,1, 7,21, 0, 3,10.00,20.00,SummerDesignDay
8,13.753085235778466
10,183749595.7418347
1788,0.0
1825,58172762.7753053
2,1, 7,21, 0, 3,20.00,30.00,SummerDesignDay
8,13.729636002354969
10,183749595.7418347
1788,0.0
1825,56372572.38099652
2,1, 7,21, 0, 3,30.00,40.00,SummerDesignDay
8,13.706147375533054
10,183749595.7418347
1788,0.0
1825,54575136.16357832
2,1, 7,21, 0, 3,40.00,50.00,SummerDesignDay
8,13.682651961920304
10,183749595.7418347
1788,0.0
1825,52780965.11059759
2,1, 7,21, 0, 3,50.00,60.00,SummerDesignDay
8,13.659136670643687
10,183749595.7418347
1788,0.0
1825,50990956.91218254
2,1, 7,21, 0, 3, 0.00,60.00,SummerDesignDay
914,23.962983171964948
954,24.00000000000001
994,23.88496172485995
1034,22.743480490591648
1074,24.000000000000019
1114,20.744955027826376
1154,22.232623277536694
1194,24.000000000000044
1234,22.13311545605774
1274,20.884076281785455
1314,24.000000000000033
1354,24.000000000000015
1394,20.817158075391224
1434,24.00000000000001
1474,21.600701179813784
1514,21.743834640601138
1554,23.61492621628847
1594,24.389279275071244
1634,23.745698974206375
1674,20.75901827616213
2,1, 7,21, 0, 4, 0.00,10.00,SummerDesignDay
8,13.63560137410855
10,180397123.64350505
1788,0.0
1825,47279900.52243223
2,1, 7,21, 0, 4,10.00,20.00,SummerDesignDay
8,13.612040802606578
10,180397123.64350505
1788,0.0
1825,45366588.84606838
2,1, 7,21, 0, 4,20.00,30.00,SummerDesignDay
8,13.58846620506876
10,180397123.64350505
1788,0.0
1825,43542062.54248747
2,1, 7,21, 0, 4,30.00,40.00,SummerDesignDay
8,13.56487178447336
10,180397123.64350505
1788,0.0
1825,41725231.36052111
2,1, 7,21, 0, 4,40.00,50.00,SummerDesignDay
8,13.541257354069103
10,180397123.64350505
1788,0.0
1825,39915586.990416239
2,1, 7,21, 0, 4,50.00,60.00,SummerDesignDay
8,13.517617463812285
10,180397123.64350505
1788,0.0
1825,38111217.82813464
2,1, 7,21, 0, 4, 0.00,60.00,SummerDesignDay
914,23.78475105832724
954,24.00000000000001
994,23.667400448318117
1034,22.433927589878626
1074,24.000000000000026
1114,20.39918426339534
1154,21.920977496397055
1194,24.000000000000015
1234,21.864069603052888
1274,20.41475158663309
1314,24.0
1354,24.0
1394,20.345237707506457
1434,23.999999999999987
1474,21.329119293374747
1514,21.45220705800763
1554,23.43772022782409
1594,24.20509997347366
1634,23.508250478834069
1674,20.46324170315498
2,1, 7,21, 0, 5, 0.00,10.00,SummerDesignDay
8,13.50185415824011
10,180397123.64350505
1788,0.0
1825,36666195.316709849
2,1, 7,21, 0, 5,10.00,20.00,SummerDesignDay
8,13.486076034032447
10,180397123.64350505
1788,0.0
1825,36135242.01865074
2,1, 7,21, 0, 5,20.00,30.00,SummerDesignDay
8,13.470289340350983
10,180397123.64350505
1788,0.0
1825,35456722.378057349
2,1, 7,21, 0, 5,30.00,40.00,SummerDesignDay
8,13.454493322631063
10,180397123.64350505
1788,0.0
1825,34771900.28267796
2,1, 7,21, 0, 5,40.00,50.00,SummerDesignDay
8,13.438688835118548
10,180397123.64350505
1788,0.0
1825,34090827.11606394
2,1, 7,21, 0, 5,50.00,60.00,SummerDesignDay
8,13.422888173889437
10,180397123.64350505
1788,0.0
1825,33369233.58203551
2,1, 7,21, 0, 5, 0.00,60.00,SummerDesignDay
914,23.643647260115857
954,24.0
994,23.636368386293097
1034,22.2135183465418
1074,24.000000000000047
1114,20.329936679525948
1154,21.73281530508582
1194,24.0
1234,21.630232002134563
1274,20.13118967196859
1314,24.00000000000003
1354,23.999999999999998
1394,20.071703365824573
1434,24.00000000000001
1474,21.091943064415486
1514,21.190142379179087
1554,23.329602416325487
1594,24.04002404596487
1634,23.38264157670369
1674,20.205009978577797
2,1, 7,21, 0, 6, 0.00,10.00,SummerDesignDay
8,13.438688835118548
10,180397123.64350505
1788,0.0
1825,34087097.17124616
2,1, 7,21, 0, 6,10.00,20.00,SummerDesignDay
8,13.454493322631063
10,180397123.64350505
1788,0.0
1825,34737442.15153872
2,1, 7,21, 0, 6,20.00,30.00,SummerDesignDay
8,13.470289340350983
10,180397123.64350505
1788,0.0
1825,35360441.37405194
2,1, 7,21, 0, 6,30.00,40.00,SummerDesignDay
8,13.486076034032447
10,180397123.64350505
1788,0.0
1825,36754866.23572865
2,1, 7,21, 0, 6,40.00,50.00,SummerDesignDay
8,13.50185415824011
10,180397123.64350505
1788,0.0
1825,37845642.42550389
2,1, 7,21, 0, 6,50.00,60.00,SummerDesignDay
8,13.517617463812285
10,180397123.64350505
1788,0.0
1825,38758925.30845681
2,1, 7,21, 0, 6, 0.00,60.00,SummerDesignDay
914,23.771282205708308
954,24.000000000000044
994,23.9563221676445
1034,22.296763832544966
1074,24.000000000000015
1114,21.13221080131809
1154,21.96008150227762
1194,24.000000000000015
1234,21.560070642912608
1274,20.01096166406572
1314,23.999999999999987
1354,24.00000000000001
1394,19.9582901672409
1434,24.000000000000019
1474,20.971513860773
1514,21.041791024036294
1554,23.335511769644517
1594,23.949552461961387
1634,23.67983434906995
1674,20.112759457155769
2,1, 7,21, 0, 7, 0.00,10.00,SummerDesignDay
8,13.572736920571789
10,183749595.7418347
1788,0.0
1825,44053260.91072363
2,1, 7,21, 0, 7,10.00,20.00,SummerDesignDay
8,13.627748229152554
10,183749595.7418347
1788,0.0
1825,50993997.38432205
2,1, 7,21, 0, 7,20.00,30.00,SummerDesignDay
8,13.682651961920304
10,183749595.7418347
1788,0.0
1825,55444558.67147058
2,1, 7,21, 0, 7,30.00,40.00,SummerDesignDay
8,13.737448093244995
10,183749595.7418347
1788,0.0
1825,61112770.604964
2,1, 7,21, 0, 7,40.00,50.00,SummerDesignDay
8,13.792137011831216
10,183749595.7418347
1788,0.0
1825,67013265.74075919
2,1, 7,21, 0, 7,50.00,60.00,SummerDesignDay
8,13.846719282840333
10,183749595.7418347
1788,0.0
1825,73151995.17470818
2,1, 7,21, 0, 7, 0.00,60.00,SummerDesignDay
914,23.99699630221997
954,24.00000000000004
994,23.999999614518
1034,22.818776557522637
1074,24.0
1114,22.29481478917029
1154,22.427815895895436
1194,24.0
1234,21.804679813219996
1274,20.20086670332022
1314,24.00000000000004
1354,24.000000000000015
1394,20.140534824887678
1434,24.000000000000005
1474,21.08197369134307
1514,21.123467985286298
1554,23.316033863392389
1594,23.981848419998028
1634,24.11910149043973
1674,20.317415969034117
2,1, 7,21, 0, 8, 0.00,10.00,SummerDesignDay
8,13.978831900527043
10,198216975.3354545
1788,11243071.469194975
1825,95340598.10811013
2,1, 7,21, 0, 8,10.00,20.00,SummerDesignDay
8,14.110321014287419
10,198216975.3354545
1788,0.0
1825,105022386.93894542
2,1, 7,21, 0, 8,20.00,30.00,SummerDesignDay
8,14.241191509616986
10,198216975.3354545
1788,0.0
1825,119959441.90859893
2,1, 7,21, 0, 8,30.00,40.00,SummerDesignDay
8,14.371447531304272
10,198216975.3354545
1788,0.0
1825,142459258.2991234
2,1, 7,21, 0, 8,40.00,50.00,SummerDesignDay
8,14.501093766564925
10,198216975.3354545
1788,0.0
1825,166724531.59725604
2,1, 7,21, 0, 8,50.00,60.00,SummerDesignDay
8,14.630134792273804
10,198216975.3354545
1788,0.0
1825,183936786.9382986
2,1, 7,21, 0, 8, 0.00,60.00,SummerDesignDay
914,23.999999999717479
954,24.0
994,23.99999999999997
1034,23.787547728709258
1074,24.000000000000026
1114,23.64135280794503
1154,23.16244484313155
1194,24.00000000000001
1234,22.56738146333828
1274,20.879140563298149
1314,24.000000000000026
1354,24.000000000000005
1394,20.79476196958564
1434,23.999999999999998
1474,21.5657315563293
1514,22.295277712004137
1554,23.52101762623663
1594,24.00004028241433
1634,23.992907791501396
1674,21.007456396118838
2,1, 7,21, 0, 9, 0.00,10.00,SummerDesignDay
8,14.773641492809972
10,274560714.9587086
1788,7121348.017875842
1825,224187037.89689798
2,1, 7,21, 0, 9,10.00,20.00,SummerDesignDay
8,14.91640948124148
10,274560714.9587086
1788,0.0
1825,260584501.1270472
2,1, 7,21, 0, 9,20.00,30.00,SummerDesignDay
8,15.05843890714102
10,274560714.9587086
1788,0.0
1825,286649235.81041517
2,1, 7,21, 0, 9,30.00,40.00,SummerDesignDay
8,15.199735893563798
10,274560714.9587086
1788,0.0
1825,309112495.94153508
2,1, 7,21, 0, 9,40.00,50.00,SummerDesignDay
8,15.340306256439395
10,274560714.9587086
1788,0.0
1825,344330880.53377929
2,1, 7,21, 0, 9,50.00,60.00,SummerDesignDay
8,15.48015101768072
10,274560714.9587086
1788,0.0
1825,369326368.0393229
2,1, 7,21, 0, 9, 0.00,60.00,SummerDesignDay
914,24.000000000000005
954,24.00000000000001
994,24.00000000000004
1034,23.99999915546148
1074,24.000000000000026
1114,23.999999650219608
1154,23.980479786089508
1194,23.99999999999999
1234,23.71015059611724
1274,22.03509845543786
1314,23.99999999999999
1354,24.0
1394,21.920589119849369
1434,24.00000000000001
1474,22.89005848720061
1514,23.842103912822738
1554,23.976510037329729
1594,24.00000000000001
1634,23.999999999999934
1674,22.5199231145411
2,1, 7,21, 0,10, 0.00,10.00,SummerDesignDay
8,15.60467292907716
10,347617606.93891188
1788,0.0
1825,430194171.75549677
2,1, 7,21, 0,10,10.00,20.00,SummerDesignDay
8,15.72862731650033
10,347617606.93891188
1788,0.0
1825,463930084.47601607
2,1, 7,21, 0,10,20.00,30.00,SummerDesignDay
8,15.852017409284228
10,347617606.93891188
1788,0.0
1825,491027735.1721599
2,1, 7,21, 0,10,30.00,40.00,SummerDesignDay
8,15.974848118364367
10,347617606.93891188
1788,0.0
1825,520166305.4478805
2,1, 7,21, 0,10,40.00,50.00,SummerDesignDay
8,16.097123145563505
10,347617606.93891188
1788,0.0
1825,551022500.5562745
2,1, 7,21, 0,10,50.00,60.00,SummerDesignDay
8,16.218846351168599
10,347617606.93891188
1788,0.0
1825,584165597.2071008
2,1, 7,21, 0,10, 0.00,60.00,SummerDesignDay
914,24.000000000000044
954,23.999999999999984
994,24.000000000000005
1034,23.999999999999266
1074,24.00000000000003
1114,23.999999999999976
1154,23.999999999716044
1194,24.000000000000019
1234,23.999906978812658
1274,23.603436941019028
1314,24.000000000000005
1354,24.0
1394,23.51934297145651
1434,24.0
1474,23.98648829635572
1514,23.999999942206583
1554,23.999999999999308
1594,24.00000000000001
1634,24.000000000000019
1674,23.823794532548019
2,1, 7,21, 0,11, 0.00,10.00,SummerDesignDay
8,16.325793027093189
10,352185068.92750766
1788,0.0
1825,619982367.6128311
2,1, 7,21, 0,11,10.00,20.00,SummerDesignDay
8,16.432322158488288
10,352185068.92750766
1788,0.0
1825,647339368.6965945
2,1, 7,21, 0,11,20.00,30.00,SummerDesignDay
8,16.538424180249178
10,352185068.92750766
1788,0.0
1825,673718804.7048534
2,1, 7,21, 0,11,30.00,40.00,SummerDesignDay
8,16.644108396469087
10,352185068.92750766
1788,0.0
1825,699745269.6692586
2,1, 7,21, 0,11,40.00,50.00,SummerDesignDay
8,16.749376736593655
10,352185068.92750766
1788,0.0
1825,725536151.3853974
2,1, 7,21, 0,11,50.00,60.00,SummerDesignDay
8,16.854232613237156
10,352185068.92750766
1788,0.0
1825,751173662.9938959
2,1, 7,21, 0,11, 0.00,60.00,SummerDesignDay
914,24.00000000000006
954,23.999999999999955
994,23.999999999999976
1034,24.000000000000058
1074,24.000000000000015
1114,24.000000000000047
1154,23.999999999999984
1194,24.000000000000033
1234,23.99999999922751
1274,23.99972346992286
1314,23.999999999999959
1354,24.000000000000005
1394,23.99944862422315
1434,24.000000000000015
1474,23.999999998478658
1514,24.000000000000015
1554,24.000000000000015
1594,24.000000000000019
1634,24.000000000000026
1674,23.999994338727359
2,1, 7,21, 0,12, 0.00,10.00,SummerDesignDay
8,16.92390823520069
10,353400058.8177739
1788,0.0
1825,775621826.7984529
2,1, 7,21, 0,12,10.00,20.00,SummerDesignDay
8,16.99340178950456
10,353400058.8177739
1788,0.0
1825,793948893.8298224
2,1, 7,21, 0,12,20.00,30.00,SummerDesignDay
8,17.06272006743463
10,353400058.8177739
1788,0.0
1825,812028500.3880144
2,1, 7,21, 0,12,30.00,40.00,SummerDesignDay
8,17.131853229172639
10,353400058.8177739
1788,0.0
1825,830078891.4470335
2,1, 7,21, 0,12,40.00,50.00,SummerDesignDay
8,17.200807172194087
10,353400058.8177739
1788,0.0
1825,847744607.3109102
2,1, 7,21, 0,12,50.00,60.00,SummerDesignDay
8,17.269582116758607
10,353400058.8177739
1788,0.0
1825,865066702.7674518
2,1, 7,21, 0,12, 0.00,60.00,SummerDesignDay
914,23.999999999999984
954,23.999999999999998
994,24.0
1034,24.00000000000009
1074,24.00000000000004
1114,24.00000000000003
1154,24.00000000000003
1194,24.000000000000019
1234,23.999999999999873
1274,23.999999976433484
1314,24.000000000000058
1354,24.000000000000015
1394,23.999999945797489
1434,24.000000000000019
1474,24.000000000000015
1514,24.000000000000015
1554,24.000000000000019
1594,24.000000000000019
1634,24.0
1674,23.99999999926149
2,1, 7,21, 0,13, 0.00,10.00,SummerDesignDay
8,17.32447360221357
10,350047586.71944418
1788,0.0
1825,887459549.3190105
2,1, 7,21, 0,13,10.00,20.00,SummerDesignDay
8,17.379251291230806
10,350047586.71944418
1788,0.0
1825,901084705.33174
2,1, 7,21, 0,13,20.00,30.00,SummerDesignDay
8,17.433921312061729
10,350047586.71944418
1788,0.0
1825,914175305.0222765
2,1, 7,21, 0,13,30.00,40.00,SummerDesignDay
8,17.488473222557489
10,350047586.71944418
1788,0.0
1825,926928003.8197904
2,1, 7,21, 0,13,40.00,50.00,SummerDesignDay
8,17.542913447755134
10,350047586.71944418
1788,0.0
1825,939175942.5134791
2,1, 7,21, 0,13,50.00,60.00,SummerDesignDay
8,17.59724609886134
10,350047586.71944418
1788,0.0
1825,951121910.5136486
2,1, 7,21, 0,13, 0.00,60.00,SummerDesignDay
914,24.000000000000087
954,24.0
994,24.00000000000006
1034,24.000000000000069
1074,24.000000000000058
1114,24.0
1154,23.999999999999987
1194,24.000000000000019
1234,24.0
1274,23.999999999998154
1314,24.000000000000058
1354,24.00000000000001
1394,23.999999999995209
1434,24.000000000000019
1474,23.999999999999987
1514,24.00000000000003
1554,24.0
1594,24.000000000000019
1634,24.000000000000019
1674,23.99999999999994
2,1, 7,21, 0,14, 0.00,10.00,SummerDesignDay
8,17.6311450462694
10,350047586.71944418
1788,0.0
1825,957775078.6483022
2,1, 7,21, 0,14,10.00,20.00,SummerDesignDay
8,17.665000449016245
10,350047586.71944418
1788,0.0
1825,965431215.8507233
2,1, 7,21, 0,14,20.00,30.00,SummerDesignDay
8,17.698812743128934
10,350047586.71944418
1788,0.0
1825,973046661.9005423
2,1, 7,21, 0,14,30.00,40.00,SummerDesignDay
8,17.732582050940107
10,350047586.71944418
1788,0.0
1825,980657400.9392065
2,1, 7,21, 0,14,40.00,50.00,SummerDesignDay
8,17.766307345121004
10,350047586.71944418
1788,0.0
1825,988293686.8721048
2,1, 7,21, 0,14,50.00,60.00,SummerDesignDay
8,17.79999023167558
10,350047586.71944418
1788,0.0
1825,995954041.1273353
2,1, 7,21, 0,14, 0.00,60.00,SummerDesignDay
914,24.000000000000026
954,24.000000000000058
994,24.000000000000055
1034,24.000000000000047
1074,24.000000000000044
1114,24.00000000000007
1154,24.00000000000007
1194,24.00000000000001
1234,24.00000000000001
1274,24.00000000000001
1314,24.0
1354,23.999999999999998
1394,24.0
1434,24.000000000000019
1474,24.00000000000001
1514,23.99999999999999
1554,24.00000000000003
1594,24.00000000000001
1634,23.99999999999999
1674,24.00000000000001
2,1, 7,21, 0,15, 0.00,10.00,SummerDesignDay
8,17.79999023167558
10,350047586.71944418
1788,0.0
1825,994844415.5981689
2,1, 7,21, 0,15,10.00,20.00,SummerDesignDay
8,17.79999023167558
10,350047586.71944418
1788,0.0
1825,995992099.6255056
2,1, 7,21, 0,15,20.00,30.00,SummerDesignDay
8,17.79999023167558
10,350047586.71944418
1788,0.0
1825,997069619.0897441
2,1, 7,21, 0,15,30.00,40.00,SummerDesignDay
8,17.79999023167558
10,350047586.71944418
1788,0.0
1825,997966750.0676576
2,1, 7,21, 0,15,40.00,50.00,SummerDesignDay
8,17.79999023167558
10,350047586.71944418
1788,0.0
1825,998612172.0091933
2,1, 7,21, 0,15,50.00,60.00,SummerDesignDay
8,17.79999023167558
10,350047586.71944418
1788,0.0
1825,998928026.5000484
2,1, 7,21, 0,15, 0.00,60.00,SummerDesignDay
914,24.00000000000009
954,24.0
994,24.000000000000069
1034,23.999999999999984
1074,24.00000000000003
1114,24.000000000000047
1154,23.99999999999999
1194,24.00000000000004
1234,23.999999999999984
1274,23.999999999999998
1314,24.000000000000033
1354,24.0
1394,24.000000000000015
1434,24.00000000000003
1474,23.999999999999998
1514,24.00000000000003
1554,24.00000000000003
1594,24.000000000000058
1634,24.00000000000001
1674,24.0
2,1, 7,21, 0,16, 0.00,10.00,SummerDesignDay
8,17.759562446305357
10,350047586.71944418
1788,0.0
1825,987583876.6062436
2,1, 7,21, 0,16,10.00,20.00,SummerDesignDay
8,17.71907809634183
10,350047586.71944418
1788,0.0
1825,979436666.102199
2,1, 7,21, 0,16,20.00,30.00,SummerDesignDay
8,17.67853788661001
10,350047586.71944418
1788,0.0
1825,970741088.8786839
2,1, 7,21, 0,16,30.00,40.00,SummerDesignDay
8,17.63791796367351
10,350047586.71944418
1788,0.0
1825,961511626.1930522
2,1, 7,21, 0,16,40.00,50.00,SummerDesignDay
8,17.59724609886134
10,350047586.71944418
1788,0.0
1825,951854354.5939537
2,1, 7,21, 0,16,50.00,60.00,SummerDesignDay
8,17.55650676726033
10,350047586.71944418
1788,0.0
1825,941759692.5538881
2,1, 7,21, 0,16, 0.00,60.00,SummerDesignDay
914,23.99999999999996
954,24.000000000000026
994,23.999999999999959
1034,24.000000000000097
1074,24.000000000000015
1114,24.00000000000004
1154,24.00000000000004
1194,24.000000000000033
1234,24.000000000000044
1274,24.00000000000001
1314,23.999999999999976
1354,24.00000000000001
1394,24.000000000000015
1434,24.0
1474,23.999999999999998
1514,24.000000000000015
1554,24.0
1594,24.00000000000003
1634,24.000000000000015
1674,24.00000000000001
2,1, 7,21, 0,17, 0.00,10.00,SummerDesignDay
8,17.50209486331892
10,341887654.6321841
1788,0.0
1825,926478647.2707279
2,1, 7,21, 0,17,10.00,20.00,SummerDesignDay
8,17.447570789624618
10,341887654.6321841
1788,0.0
1825,912963412.6580682
2,1, 7,21, 0,17,20.00,30.00,SummerDesignDay
8,17.392929544208135
10,341887654.6321841
1788,0.0
1825,899431653.131009
2,1, 7,21, 0,17,30.00,40.00,SummerDesignDay
8,17.33818013976614
10,341887654.6321841
1788,0.0
1825,885724633.1007618
2,1, 7,21, 0,17,40.00,50.00,SummerDesignDay
8,17.283317298559309
10,341887654.6321841
1788,0.0
1825,871864773.66581
2,1, 7,21, 0,17,50.00,60.00,SummerDesignDay
8,17.22833552437677
10,341887654.6321841
1788,0.0
1825,857868100.7548907
2,1, 7,21, 0,17, 0.00,60.00,SummerDesignDay
914,24.000000000000015
954,24.00000000000006
994,24.00000000000007
1034,24.000000000000005
1074,24.00000000000001
1114,24.0
1154,24.00000000000004
1194,24.000000000000055
1234,24.000000000000033
1274,24.0
1314,24.0
1354,24.00000000000001
1394,24.000000000000015
1434,24.00000000000001
1474,24.00000000000001
1514,24.0
1554,24.00000000000003
1594,24.00000000000003
1634,24.00000000000003
1674,24.0
2,1, 7,21, 0,18, 0.00,10.00,SummerDesignDay
8,17.159453019160176
10,331072744.6409449
1788,0.0
1825,834188610.2641395
2,1, 7,21, 0,18,10.00,20.00,SummerDesignDay
8,17.090391773337136
10,331072744.6409449
1788,0.0
1825,816159348.5748712
2,1, 7,21, 0,18,20.00,30.00,SummerDesignDay
8,17.021151077964786
10,331072744.6409449
1788,0.0
1825,797867867.88179
2,1, 7,21, 0,18,30.00,40.00,SummerDesignDay
8,16.951729380464653
10,331072744.6409449
1788,0.0
1825,779479213.1068734
2,1, 7,21, 0,18,40.00,50.00,SummerDesignDay
8,16.882126503829249
10,331072744.6409449
1788,0.0
1825,761098768.759088
2,1, 7,21, 0,18,50.00,60.00,SummerDesignDay
8,16.812341807494034
10,331072744.6409449
1788,0.0
1825,742634997.8875723
2,1, 7,21, 0,18, 0.00,60.00,SummerDesignDay
914,23.999999999999969
954,24.000000000000026
994,24.000000000000033
1034,24.00000000000003
1074,24.000000000000005
1114,24.000000000000019
1154,24.0
1194,24.000000000000033
1234,24.000000000000015
1274,24.0
1314,23.999999999999984
1354,24.000000000000005
1394,23.99999999999999
1434,24.000000000000019
1474,24.0
1514,24.00000000000003
1554,24.00000000000001
1594,24.000000000000015
1634,24.000000000000026
1674,23.999999999999984
2,1, 7,21, 0,19, 0.00,10.00,SummerDesignDay
8,16.707321072823203
10,318607848.38095709
1788,0.0
1825,708832713.5349217
2,1, 7,21, 0,19,10.00,20.00,SummerDesignDay
8,16.601881826644556
10,318607848.38095709
1788,0.0
1825,682093731.6915121
2,1, 7,21, 0,19,20.00,30.00,SummerDesignDay
8,16.496030555252849
10,318607848.38095709
1788,0.0
1825,655780355.113193
2,1, 7,21, 0,19,30.00,40.00,SummerDesignDay
8,16.389760181474104
10,318607848.38095709
1788,0.0
1825,629636065.3205216
2,1, 7,21, 0,19,40.00,50.00,SummerDesignDay
8,16.283067654262039
10,318607848.38095709
1788,0.0
1825,603563059.8074
2,1, 7,21, 0,19,50.00,60.00,SummerDesignDay
8,16.17595057957811
10,318607848.38095709
1788,0.0
1825,577454046.481806
2,1, 7,21, 0,19, 0.00,60.00,SummerDesignDay
914,24.00000000000003
954,24.000000000000033
994,24.000000000000033
1034,24.000000000000033
1074,24.00000000000003
1114,24.000000000000005
1154,24.000000000000058
1194,24.00000000000003
1234,24.000000000000015
1274,24.00000000000001
1314,24.000000000000019
1354,24.000000000000005
1394,23.999999999999998
1434,23.99999999999999
1474,24.000000000000005
1514,24.000000000000026
1554,24.00000000000004
1594,23.999999999999959
1634,24.000000000000026
1674,24.0
2,1, 7,21, 0,20, 0.00,10.00,SummerDesignDay
8,16.097123145563505
10,303356725.30562499
1788,0.0
1825,550240146.7393453
2,1, 7,21, 0,20,10.00,20.00,SummerDesignDay
8,16.018070242471564
10,303356725.30562499
1788,0.0
1825,528843083.51165369
2,1, 7,21, 0,20,20.00,30.00,SummerDesignDay
8,15.938779752340516
10,303356725.30562499
1788,0.0
1825,508042976.945356
2,1, 7,21, 0,20,30.00,40.00,SummerDesignDay
8,15.85926152575189
10,303356725.30562499
1788,0.0
1825,486919045.6816854
2,1, 7,21, 0,20,40.00,50.00,SummerDesignDay
8,15.779503718563929
10,303356725.30562499
1788,0.0
1825,465001287.51482596
2,1, 7,21, 0,20,50.00,60.00,SummerDesignDay
8,15.699515709672767
10,303356725.30562499
1788,0.0
1825,442075085.86390808
2,1, 7,21, 0,20, 0.00,60.00,SummerDesignDay
914,24.000000000000033
954,24.00000000000003
994,24.000000000000015
1034,23.999999999999987
1074,24.000000000000044
1114,23.999999999999987
1154,24.00000000000004
1194,24.000000000000015
1234,23.99999999999996
1274,24.0
1314,24.000000000000019
1354,24.00000000000001
1394,24.00000000000001
1434,24.00000000000001
1474,24.000000000000019
1514,24.000000000000019
1554,24.000000000000026
1594,23.99999999999997
1634,24.00000000000003
1674,24.000000000000005
2,1, 7,21, 0,21, 0.00,10.00,SummerDesignDay
8,15.63389147320404
10,300308000.6776419
1788,0.0
1825,421047780.59811177
2,1, 7,21, 0,21,10.00,20.00,SummerDesignDay
8,15.56810827419793
10,300308000.6776419
1788,0.0
1825,400345563.51801088
2,1, 7,21, 0,21,20.00,30.00,SummerDesignDay
8,15.502170882753524
10,300308000.6776419
1788,0.0
1825,379687295.2017379
2,1, 7,21, 0,21,30.00,40.00,SummerDesignDay
8,15.436068032613852
10,300308000.6776419
1788,0.0
1825,359096555.3201276
2,1, 7,21, 0,21,40.00,50.00,SummerDesignDay
8,15.369804371206009
10,300308000.6776419
1788,0.0
1825,340649521.6256688
2,1, 7,21, 0,21,50.00,60.00,SummerDesignDay
8,15.303384603594449
10,300308000.6776419
1788,0.0
1825,321566391.3977546