Program Version,EnergyPlus, Version 8.9.0-eba93e8e1b, YMD=2019.03.19 18:41
1,5,Environment Title[],Latitude[deg],Longitude[deg],Time Zone[],Elevation[m]
2,8,Day of Simulation[],Month[],Day of Month[],DST Indicator[1=yes 0=no],Hour[],StartMinute[],EndMinute[],DayType
3,5,Cumulative Day of Simulation[],Month[],Day of Month[],DST Indicator[1=yes 0=no],DayType  ! When Daily Report Variables Requested
4,2,Cumulative Days of Simulation[],Month[]  ! When Monthly Report Variables Requested
5,1,Cumulative Days of Simulation[] ! When Run Period Report Variables Requested
6,1,Calendar Year of Simulation[] ! When Annual Report Variables Requested
7,9,Environment,Site Outdoor Air Drybulb Temperature [C] !Monthly [Value,Min,Day,Hour,Minute,Max,Day,Hour,Minute]
8,1,Environment,Site Outdoor Air Wetbulb Temperature [C] !TimeStep
1008,1,ALL_ST=LAB - RESEARCH_FL=STORY 4_SCH=A,Zone Air Temperature [C] !Hourly
1009,7,ALL_ST=LAB - RESEARCH_FL=STORY 4_SCH=A,Zone Air Relative Humidity [%] !Daily [Value,Min,Hour,Minute,Max,Hour,Minute]
1048,1,ALL_ST=LIBRARY - CATALOGING_FL=STORY 4_SCH=C,Zone Air Temperature [C] !Hourly
1049,7,ALL_ST=LIBRARY - CATALOGING_FL=STORY 4_SCH=C,Zone Air Relative Humidity [%] !Daily [Value,Min,Hour,Minute,Max,Hour,Minute]
1088,1,ALL_ST=LIBRARY - READING_FL=STORY 4_SCH=C,Zone Air Temperature [C] !Hourly
1089,7,ALL_ST=LIBRARY - READING_FL=STORY 4_SCH=C,Zone Air Relative Humidity [%] !Daily [Value,Min,Hour,Minute,Max,Hour,Minute]
1128,1,ALL_ST=LIBRARY - STACKS_FL=STORY 4_SCH=C,Zone Air Temperature [C] !Hourly
1129,7,ALL_ST=LIBRARY - STACKS_FL=STORY 4_SCH=C,Zone Air Relative Humidity [%] !Daily [Value,Min,Hour,Minute,Max,Hour,Minute]
1168,1,ALL_ST=LOBBY - ELEVATOR_FL=STORY 3_SCH=C,Zone Air Temperature [C] !Hourly
1169,7,ALL_ST=LOBBY - ELEVATOR_FL=STORY 3_SCH=C,Zone Air Relative Humidity [%] !Daily [Value,Min,Hour,Minute,Max,Hour,Minute]
1208,1,ALL_ST=LOBBY - MOTION PICTURE_FL=STORY 3_SCH=C,Zone Air Temperature [C] !Hourly
1209,7,ALL_ST=LOBBY - MOTION PICTURE_FL=STORY 3_SCH=C,Zone Air Relative Humidity [%] !Daily [Value,Min,Hour,Minute,Max,Hour,Minute]
1248,1,ALL_ST=LOBBY - OTHER_FL=STORY 3_SCH=C,Zone Air Temperature [C] !Hourly
1249,7,ALL_ST=LOBBY - OTHER_FL=STORY 3_SCH=C,Zone Air Relative Humidity [%] !Daily [Value,Min,Hour,Minute,Max,Hour,Minute]
1288,1,ALL_ST=LOBBY - PERFORMANCE ARTS_FL=STORY 1_SCH=C,Zone Air Temperature [C] !Hourly
1289,7,ALL_ST=LOBBY - PERFORMANCE ARTS_FL=STORY 1_SCH=C,Zone Air Relative Humidity [%] !Daily [Value,Min,Hour,Minute,Max,Hour,Minute]
1328,1,ALL_ST=LOUNGE/RECREATION_FL=STORY 1_SCH=B,Zone Air Temperature [C] !Hourly
1329,7,ALL_ST=LOUNGE/RECREATION_FL=STORY 1_SCH=B,Zone Air Relative Humidity [%] !Daily [Value,Min,Hour,Minute,Max,Hour,Minute]
1368,1,ALL_ST=MFG - 7.5 <= BAY H <= 15M_FL=STORY 1_SCH=A,Zone Air Temperature [C] !Hourly
1369,7,ALL_ST=MFG - 7.5 <= BAY H <= 15M_FL=STORY 1_SCH=A,Zone Air Relative Humidity [%] !Daily [Value,Min,Hour,Minute,Max,Hour,Minute]
1408,1,ALL_ST=MFG - BAY H < 7.5M_FL=STORY 2_SCH=A,Zone Air Temperature [C] !Hourly
1409,7,ALL_ST=MFG - BAY H < 7.5M_FL=STORY 2_SCH=A,Zone Air Relative Humidity [%] !Daily [Value,Min,Hour,Minute,Max,Hour,Minute]
1448,1,ALL_ST=MFG - BAY H > 15M_FL=STORY 3_SCH=A,Zone Air Temperature [C] !Hourly
1449,7,ALL_ST=MFG - BAY H > 15M_FL=STORY 3_SCH=A,Zone Air Relative Humidity [%] !Daily [Value,Min,Hour,Minute,Max,Hour,Minute]
1488,1,WILD_ST=MFG - CORR. < 2.4M-SCH-A_FL=STORY 2_SCH=C,Zone Air Temperature [C] !Hourly
1489,7,WILD_ST=MFG - CORR. < 2.4M-SCH-A_FL=STORY 2_SCH=C,Zone Air Relative Humidity [%] !Daily [Value,Min,Hour,Minute,Max,Hour,Minute]
1528,1,WILD_ST=MFG - CORR. < 2.4M-SCH-B_FL=STORY 1_SCH=C,Zone Air Temperature [C] !Hourly
1529,7,WILD_ST=MFG - CORR. < 2.4M-SCH-B_FL=STORY 1_SCH=C,Zone Air Relative Humidity [%] !Daily [Value,Min,Hour,Minute,Max,Hour,Minute]
1568,1,WILD_ST=MFG - CORR. < 2.4M-SCH-C_FL=STORY 4_SCH=C,Zone Air Temperature [C] !Hourly
1569,7,WILD_ST=MFG - CORR. < 2.4M-SCH-C_FL=STORY 4_SCH=C,Zone Air Relative Humidity [%] !Daily [Value,Min,Hour,Minute,Max,Hour,Minute]
1608,1,WILD_ST=MFG - CORR. < 2.4M-SCH-D_FL=STORY 2_SCH=C,Zone Air Temperature [C] !Hourly
1609,7,WILD_ST=MFG - CORR. < 2.4M-SCH-D_FL=STORY 2_SCH=C,Zone Air Relative Humidity [%] !Daily [Value,Min,Hour,Minute,Max,Hour,Minute]
1648,1,WILD_ST=MFG - CORR. < 2.4M-SCH-E_FL=STORY 1_SCH=C,Zone Air Temperature [C] !Hourly
1649,7,WILD_ST=MFG - CORR. < 2.4M-SCH-E_FL=STORY 1_SCH=C,Zone Air Relative Humidity [%] !Daily [Value,Min,Hour,Minute,Max,Hour,Minute]
1688,1,WILD_ST=MFG - CORR. < 2.4M-SCH-F_FL=STORY 2_SCH=C,Zone Air Temperature [C] !Hourly
1689,7,WILD_ST=MFG - CORR. < 2.4M-SCH-F_FL=STORY 2_SCH=C,Zone Air Relative Humidity [%] !Daily [Value,Min,Hour,Minute,Max,Hour,Minute]
1728,1,WILD_ST=MFG - CORR. < 2.4M-SCH-G_FL=STORY 3_SCH=C,Zone Air Temperature [C] !Hourly
1729,7,WILD_ST=MFG - CORR. < 2.4M-SCH-G_FL=STORY 3_SCH=C,Zone Air Relative Humidity [%] !Daily [Value,Min,Hour,Minute,Max,Hour,Minute]
1768,1,WILD_ST=MFG - CORR. < 2.4M-SCH-H_FL=STORY 2_SCH=C,Zone Air Temperature [C] !Hourly
1769,7,WILD_ST=MFG - CORR. < 2.4M-SCH-H_FL=STORY 2_SCH=C,Zone Air Relative Humidity [%] !Daily [Value,Min,Hour,Minute,Max,Hour,Minute]
10,1,Electricity:Facility [J] !TimeStep
774,1,Gas:Facility [J] !TimeStep
End of Data Dictionary
1,FORT MCMURRAY AP ANN CLG .4% CONDNS DB=>MWB,  56.65,-111.22,  -7.00, 369.10
2,1, 7,21, 0, 1, 0.00,10.00,SummerDesignDay
8,14.218136923962174
10,67904756.19492445
774,12000.0
2,1, 7,21, 0, 1,10.00,20.00,SummerDesignDay
8,14.171982153293495
10,67704054.68058665
774,11931959.915371035
2,1, 7,21, 0, 1,20.00,30.00,SummerDesignDay
8,14.125744780286427
10,67628272.99718493
774,6223333.886658663
2,1, 7,21, 0, 1,30.00,40.00,SummerDesignDay
8,14.079436086331978
10,67563772.18156447
774,4426858.707288657
2,1, 7,21, 0, 1,40.00,50.00,SummerDesignDay
8,14.033050387896898
10,67485714.9523525
774,13620343.724997359
2,1, 7,21, 0, 1,50.00,60.00,SummerDesignDay
8,13.986581233564835
10,67419786.6881093
774,12000.0
2,1, 7,21, 0, 1, 0.00,60.00,SummerDesignDay
1008,21.943272358040987
1048,20.3174266076502
1088,20.56455404796022
1128,20.342245439492058
1168,21.588378556831079
1208,21.420664317023467
1248,21.83889026573733
1288,21.216750782513804
1328,23.99846856577174
1368,23.11698681747905
1408,23.43490504245609
1448,23.652961081032218
1488,23.093783262420375
1528,22.226334519174757
1568,21.42290048825932
1608,22.81833651980446
1648,22.47380410085086
1688,23.345608804670236
1728,23.344288735554206
1768,22.9780205683477
2,1, 7,21, 0, 2, 0.00,10.00,SummerDesignDay
8,13.95555882260429
10,62213180.44971177
774,17710210.618455519
2,1, 7,21, 0, 2,10.00,20.00,SummerDesignDay
8,13.924507755336454
10,62213152.43745973
774,12000.0
2,1, 7,21, 0, 2,20.00,30.00,SummerDesignDay
8,13.893416042989206
10,62213126.62036757
774,17809357.360645724
2,1, 7,21, 0, 2,30.00,40.00,SummerDesignDay
8,13.862289589689029
10,62213101.47417013
774,12000.0
2,1, 7,21, 0, 2,40.00,50.00,SummerDesignDay
8,13.831134407608739
10,62213076.52708294
774,14870602.055578992
2,1, 7,21, 0, 2,50.00,60.00,SummerDesignDay
8,13.799938415548118
10,62213051.64845044
774,3013392.757487159
2,1, 7,21, 0, 2, 0.00,60.00,SummerDesignDay
1008,21.436148791294149
1048,20.05001788719566
1088,20.268785833417544
1128,20.034850610494414
1168,21.116586937970543
1208,20.955736554082006
1248,21.342269428138054
1288,20.771855285576004
1328,23.783082082811835
1368,22.82457422020704
1408,23.15684881855658
1448,23.312989999607173
1488,22.82902384684147
1528,21.984335923143957
1568,20.910448514978176
1608,22.586783609610099
1648,22.222167481343609
1688,23.01456389593932
1728,22.983081369038108
1768,22.66744221708846
2,1, 7,21, 0, 3, 0.00,10.00,SummerDesignDay
8,13.776521671948676
10,57956062.22014926
774,12000.0
2,1, 7,21, 0, 3,10.00,20.00,SummerDesignDay
8,13.753085235778466
10,57956042.03291111
774,12000.0
2,1, 7,21, 0, 3,20.00,30.00,SummerDesignDay
8,13.729636002354969
10,57956022.94177118
774,16530827.646385624
2,1, 7,21, 0, 3,30.00,40.00,SummerDesignDay
8,13.706147375533054
10,57956004.19058505
774,12000.0
2,1, 7,21, 0, 3,40.00,50.00,SummerDesignDay
8,13.682651961920304
10,57955985.53078858
774,12000.0
2,1, 7,21, 0, 3,50.00,60.00,SummerDesignDay
8,13.659136670643687
10,57955966.908824708
774,12000.0
2,1, 7,21, 0, 3, 0.00,60.00,SummerDesignDay
1008,21.043581028912944
1048,19.81191221492082
1088,20.002456537907614
1128,19.758469705748124
1168,20.74115990174855
1208,20.58999929452619
1248,20.944892907436807
1288,20.427705273448596
1328,23.105978976331586
1368,22.586171327869967
1408,22.924090226711127
1448,23.025348514378249
1488,22.60778631957312
1528,21.790879813723906
1568,20.502909061517419
1608,22.398362939874109
1648,22.020410473114344
1688,22.729765652619777
1728,22.674991597213617
1768,22.40860979273957
2,1, 7,21, 0, 4, 0.00,10.00,SummerDesignDay
8,13.63560137410855
10,57955948.30035099
774,12000.0
2,1, 7,21, 0, 4,10.00,20.00,SummerDesignDay
8,13.612040802606578
10,57955929.69948415
774,16517223.48463057
2,1, 7,21, 0, 4,20.00,30.00,SummerDesignDay
8,13.58846620506876
10,57915386.35287707
774,12000.0
2,1, 7,21, 0, 4,30.00,40.00,SummerDesignDay
8,13.56487178447336
10,57842486.53313796
774,12000.0
2,1, 7,21, 0, 4,40.00,50.00,SummerDesignDay
8,13.541257354069103
10,57769553.721690889
774,12000.0
2,1, 7,21, 0, 4,50.00,60.00,SummerDesignDay
8,13.517617463812285
10,57696644.08076651
774,12000.0
2,1, 7,21, 0, 4, 0.00,60.00,SummerDesignDay
1008,20.706380210075399
1048,19.59209660038393
1088,19.7547132669242
1128,19.50114715975991
1168,20.401677028921687
1208,20.26164779686142
1248,20.586054548145805
1288,20.120995202403298
1328,22.711466546467375
1368,22.36910770428368
1408,22.700547240326278
1448,22.759936748344019
1488,22.402664854876563
1528,21.617088062462078
1568,20.145577478416944
1608,22.224939022375506
1648,21.83935912763117
1688,22.461739398464475
1728,22.390790502148137
1768,22.168731144081023
2,1, 7,21, 0, 5, 0.00,10.00,SummerDesignDay
8,13.50185415824011
10,57642890.890801269
774,16502168.87989219
2,1, 7,21, 0, 5,10.00,20.00,SummerDesignDay
8,13.486076034032447
10,57591425.654050368
774,12000.0
2,1, 7,21, 0, 5,20.00,30.00,SummerDesignDay
8,13.470289340350983
10,57544300.38511747
774,12000.0
2,1, 7,21, 0, 5,30.00,40.00,SummerDesignDay
8,13.454493322631063
10,57502037.00337081
774,12000.0
2,1, 7,21, 0, 5,40.00,50.00,SummerDesignDay
8,13.438688835118548
10,57462890.03939659
774,12000.0
2,1, 7,21, 0, 5,50.00,60.00,SummerDesignDay
8,13.422888173889437
10,57425318.1491123
774,16485179.176451257
2,1, 7,21, 0, 5, 0.00,60.00,SummerDesignDay
1008,20.44448099234272
1048,19.452005089982923
1088,19.71236294370409
1128,19.32342335881499
1168,20.1780623070801
1208,20.014477995089736
1248,20.26579394997651
1288,19.84728669651459
1328,22.506793177344468
1368,22.16848699626091
1408,22.543865988844585
1448,22.509747201394064
1488,22.214200002664524
1528,21.458203596458675
1568,20.048702182871108
1608,22.06051308597796
1648,21.670453336082447
1688,22.211816363062004
1728,22.130640370112049
1768,22.04132617759055
2,1, 7,21, 0, 6, 0.00,10.00,SummerDesignDay
8,13.438688835118548
10,57464830.691576849
774,12000.0
2,1, 7,21, 0, 6,10.00,20.00,SummerDesignDay
8,13.454493322631063
10,57513650.63487915
774,12000.0
2,1, 7,21, 0, 6,20.00,30.00,SummerDesignDay
8,13.470289340350983
10,57563063.898194517
774,12000.0
2,1, 7,21, 0, 6,30.00,40.00,SummerDesignDay
8,13.486076034032447
10,57612820.91149631
774,12000.0
2,1, 7,21, 0, 6,40.00,50.00,SummerDesignDay
8,13.50185415824011
10,57662835.245758768
774,16465551.000611896
2,1, 7,21, 0, 6,50.00,60.00,SummerDesignDay
8,13.517617463812285
10,57713094.12871573
774,12000.0
2,1, 7,21, 0, 6, 0.00,60.00,SummerDesignDay
1008,20.457068195213336
1048,19.557970833781459
1088,20.056678990351938
1128,19.37864718415422
1168,20.34673994054639
1208,19.95475780990814
1248,20.1165495329119
1288,19.733918932403524
1328,22.379638650999568
1368,22.055866912308024
1408,22.512775396704737
1448,22.343519252362048
1488,22.11704385972043
1528,21.376714924805019
1568,20.776056060216047
1608,21.972440475325344
1648,21.576623059318974
1688,22.061453379875734
1728,21.97686411298042
1768,22.31818937958037
2,1, 7,21, 0, 7, 0.00,10.00,SummerDesignDay
8,13.572736920571789
10,57859349.298141259
774,12000.0
2,1, 7,21, 0, 7,10.00,20.00,SummerDesignDay
8,13.627748229152554
10,57955532.347548659
774,12000.0
2,1, 7,21, 0, 7,20.00,30.00,SummerDesignDay
8,13.682651961920304
10,57955800.08058939
774,12000.0
2,1, 7,21, 0, 7,30.00,40.00,SummerDesignDay
8,13.737448093244995
10,57955915.74430974
774,16442206.873543086
2,1, 7,21, 0, 7,40.00,50.00,SummerDesignDay
8,13.792137011831216
10,57955979.77542927
774,12000.0
2,1, 7,21, 0, 7,50.00,60.00,SummerDesignDay
8,13.846719282840333
10,57956029.236988637
774,12000.0
2,1, 7,21, 0, 7, 0.00,60.00,SummerDesignDay
1008,20.87433627159982
1048,19.896167947707906
1088,20.27726705543316
1128,19.644841464695067
1168,20.817302991878177
1208,20.114772881004183
1248,20.27565453741777
1288,19.93109645711529
1328,22.393573441812504
1368,22.132460289295094
1408,22.50190988699643
1448,22.349372378892583
1488,22.170084451336988
1528,21.448457879138329
1568,21.847380679677007
1608,22.02797362766943
1648,21.63378962106925
1688,22.077619273401998
1728,22.000634091531315
1768,22.764570159706336
2,1, 7,21, 0, 8, 0.00,10.00,SummerDesignDay
8,13.978831900527043
10,84957772.50228748
774,21327126.82291017
2,1, 7,21, 0, 8,10.00,20.00,SummerDesignDay
8,14.110321014287419
10,83604495.87185936
774,16958490.650547524
2,1, 7,21, 0, 8,20.00,30.00,SummerDesignDay
8,14.241191509616986
10,83796789.42294719
774,12000.0
2,1, 7,21, 0, 8,30.00,40.00,SummerDesignDay
8,14.371447531304272
10,83605182.64002626
774,12000.0
2,1, 7,21, 0, 8,40.00,50.00,SummerDesignDay
8,14.501093766564925
10,83764425.95060492
774,10208325.443351735
2,1, 7,21, 0, 8,50.00,60.00,SummerDesignDay
8,14.630134792273804
10,83756444.890363
774,6851889.500322477
2,1, 7,21, 0, 8, 0.00,60.00,SummerDesignDay
1008,22.799011907535417
1048,20.58465770876299
1088,20.85733825336338
1128,20.322971588708155
1168,21.70502184344888
1208,20.797547456618493
1248,20.941728134234578
1288,20.638155438366924
1328,22.622779769498565
1368,22.822026736112734
1408,23.060581594211788
1448,22.90262889855453
1488,22.45250716358689
1528,21.758281035442818
1568,23.288175248916294
1608,22.30505949296663
1648,21.926889014420387
1688,22.359889490914246
1728,22.29746059415739
1768,23.35599568524333
2,1, 7,21, 0, 9, 0.00,10.00,SummerDesignDay
8,14.773641492809972
10,230886596.07702194
774,109992944.41420166
2,1, 7,21, 0, 9,10.00,20.00,SummerDesignDay
8,14.91640948124148
10,236655389.4772105
774,17789649.980385864
2,1, 7,21, 0, 9,20.00,30.00,SummerDesignDay
8,15.05843890714102
10,240106088.59705834
774,13159121.789231699
2,1, 7,21, 0, 9,30.00,40.00,SummerDesignDay
8,15.199735893563798
10,242942800.0486898
774,22272398.415049849
2,1, 7,21, 0, 9,40.00,50.00,SummerDesignDay
8,15.340306256439395
10,245419771.8338666
774,23476384.825423518
2,1, 7,21, 0, 9,50.00,60.00,SummerDesignDay
8,15.48015101768072
10,247235762.60538546
774,23389596.117821199
2,1, 7,21, 0, 9, 0.00,60.00,SummerDesignDay
1008,23.98889956687086
1048,22.595532094804786
1088,22.761630379749435
1128,22.554100246542288
1168,23.173509608384849
1208,22.39169762126239
1248,22.520631395821956
1288,22.602050498700846
1328,23.104612620636919
1368,23.935386993405456
1408,23.960592647425103
1448,23.92741071687163
1488,23.143572061596545
1528,22.507638336173913
1568,25.313551657366906
1608,22.984014449290034
1648,22.65799142477891
1688,23.075478703060584
1728,23.053599779528473
1768,24.26085580494474
2,1, 7,21, 0,10, 0.00,10.00,SummerDesignDay
8,15.60467292907716
10,334305220.02024057
774,29248943.062072539
2,1, 7,21, 0,10,10.00,20.00,SummerDesignDay
8,15.72862731650033
10,346030952.12152126
774,29640098.934749906
2,1, 7,21, 0,10,20.00,30.00,SummerDesignDay
8,15.852017409284228
10,363851530.75527587
774,29665904.720273097
2,1, 7,21, 0,10,30.00,40.00,SummerDesignDay
8,15.974848118364367
10,366384489.9981959
774,27797129.571904474
2,1, 7,21, 0,10,40.00,50.00,SummerDesignDay
8,16.097123145563505
10,376192147.3387079
774,26587700.49457581
2,1, 7,21, 0,10,50.00,60.00,SummerDesignDay
8,16.218846351168599
10,385196824.13032397
774,26575612.62543251
2,1, 7,21, 0,10, 0.00,60.00,SummerDesignDay
1008,23.998450691095113
1048,23.93527806566836
1088,23.967791445842456
1128,23.961210917348283
1168,23.998209069827586
1208,23.75594389452402
1248,23.85641957777638
1288,23.93345483915624
1328,23.93209684594787
1368,23.99923114157427
1408,23.999332029692238
1448,23.999408786482794
1488,23.95535956755379
1528,23.363352466065895
1568,27.006757542012694
1608,23.71838932757571
1648,23.482163177549525
1688,23.789166123865514
1728,23.949375669064144
1768,24.974272164607556
2,1, 7,21, 0,11, 0.00,10.00,SummerDesignDay
8,16.325793027093189
10,399784705.22272619
774,37466033.221200998
2,1, 7,21, 0,11,10.00,20.00,SummerDesignDay
8,16.432322158488288
10,408132761.0140052
774,38187149.21059344
2,1, 7,21, 0,11,20.00,30.00,SummerDesignDay
8,16.538424180249178
10,415725875.2662775
774,58879767.684377629
2,1, 7,21, 0,11,30.00,40.00,SummerDesignDay
8,16.644108396469087
10,423184083.77725806
774,38271333.06687411
2,1, 7,21, 0,11,40.00,50.00,SummerDesignDay
8,16.749376736593655
10,430494648.1155547
774,38222862.07246336
2,1, 7,21, 0,11,50.00,60.00,SummerDesignDay
8,16.854232613237156
10,437892588.1089405
774,49051577.16649078
2,1, 7,21, 0,11, 0.00,60.00,SummerDesignDay
1008,23.997819238428379
1048,23.999768333277605
1088,23.9997795613928
1128,23.99977680630498
1168,23.999757036375429
1208,23.999755309225763
1248,23.999804430200567
1288,23.99976715746132
1328,23.999501580073134
1368,23.99910186384757
1408,23.99919183446275
1448,23.999241880440839
1488,23.99994112680713
1528,23.120717984524295
1568,26.807700592405614
1608,23.459467180206948
1648,23.251892956551918
1688,23.509598793487105
1728,24.05043007711674
1768,24.452454088898823
2,1, 7,21, 0,12, 0.00,10.00,SummerDesignDay
8,16.92390823520069
10,446463122.70393338
774,47885422.89309626
2,1, 7,21, 0,12,10.00,20.00,SummerDesignDay
8,16.99340178950456
10,451951969.405076
774,37920699.39608166
2,1, 7,21, 0,12,20.00,30.00,SummerDesignDay
8,17.06272006743463
10,457280189.9563126
774,37864632.03518266
2,1, 7,21, 0,12,30.00,40.00,SummerDesignDay
8,17.131853229172639
10,462463750.9176566
774,53250572.267176467
2,1, 7,21, 0,12,40.00,50.00,SummerDesignDay
8,17.200807172194087
10,467476913.8749239
774,43538548.096973698
2,1, 7,21, 0,12,50.00,60.00,SummerDesignDay
8,17.269582116758607
10,472316888.22218009
774,37911756.96735903
2,1, 7,21, 0,12, 0.00,60.00,SummerDesignDay
1008,23.997310400424966
1048,23.999450121179249
1088,23.999485100634457
1128,23.999457995990725
1168,23.999769317076486
1208,23.999877247410255
1248,23.99983465734037
1288,23.99977436783634
1328,23.999042004944898
1368,23.99900725905287
1408,23.999098670253038
1448,23.999130961485237
1488,23.99995295888398
1528,22.75721517712921
1568,26.213256963281066
1608,23.128972299884088
1648,22.92642866395984
1688,23.204818977034603
1728,24.145437424905578
1768,23.8597173256067
2,1, 7,21, 0,13, 0.00,10.00,SummerDesignDay
8,17.32447360221357
10,478969296.9584405
774,58879767.684377629
2,1, 7,21, 0,13,10.00,20.00,SummerDesignDay
8,17.379251291230806
10,483672175.8737307
774,41622616.54795689
2,1, 7,21, 0,13,20.00,30.00,SummerDesignDay
8,17.433921312061729
10,487569372.927367
774,58879767.684377629
2,1, 7,21, 0,13,30.00,40.00,SummerDesignDay
8,17.488473222557489
10,491503594.51176908
774,58879767.684377629
2,1, 7,21, 0,13,40.00,50.00,SummerDesignDay
8,17.542913447755134
10,495346266.27161279
774,41633329.806794669
2,1, 7,21, 0,13,50.00,60.00,SummerDesignDay
8,17.59724609886134
10,498909839.4160717
774,58879767.684377629
2,1, 7,21, 0,13, 0.00,60.00,SummerDesignDay
1008,23.99757947650011
1048,23.999223236495355
1088,23.999247852688908
1128,23.999224252464683
1168,23.999620541368104
1208,23.999749457481554
1248,23.999696520401458
1288,23.99962951867472
1328,23.99841434667908
1368,23.999133730882297
1408,23.999210995107707
1448,23.9991999645065
1488,24.000008339211676
1528,22.50776926373756
1568,25.869413454134219
1608,22.909646946760764
1648,22.72068363372327
1688,23.011602862222927
1728,24.260173440077563
1768,23.543177497562508
2,1, 7,21, 0,14, 0.00,10.00,SummerDesignDay
8,17.6311450462694
10,501271471.45744898
774,58879767.684377629
2,1, 7,21, 0,14,10.00,20.00,SummerDesignDay
8,17.665000449016245
10,503733674.3390436
774,41924757.97913866
2,1, 7,21, 0,14,20.00,30.00,SummerDesignDay
8,17.698812743128934
10,506005422.45626077
774,58879767.684377629
2,1, 7,21, 0,14,30.00,40.00,SummerDesignDay
8,17.732582050940107
10,508147863.3584987
774,58879767.684377629
2,1, 7,21, 0,14,40.00,50.00,SummerDesignDay
8,17.766307345121004
10,510319782.27524939
774,50807084.97505405
2,1, 7,21, 0,14,50.00,60.00,SummerDesignDay
8,17.79999023167558
10,512421172.2569765
774,50007601.7470452
2,1, 7,21, 0,14, 0.00,60.00,SummerDesignDay
1008,23.997765045710353
1048,23.999089683520933
1088,23.999087110840845
1128,23.99906305052657
1168,23.999470445879696
1208,23.999629616830874
1248,23.999547126817075
1288,23.999497410561508
1328,23.997995946171799
1368,23.99915621433695
1408,23.999272428838336
1448,23.99931673043218
1488,23.999955385535924
1528,22.403267656177019
1568,25.752654090172088
1608,22.831316020178425
1648,22.66117130995272
1688,22.9998483441555
1728,24.38374132370262
1768,23.44370835584931
2,1, 7,21, 0,15, 0.00,10.00,SummerDesignDay
8,17.79999023167558
10,513189249.7994485
774,58879767.684377629
2,1, 7,21, 0,15,10.00,20.00,SummerDesignDay
8,17.79999023167558
10,513330891.56123
774,58879767.684377629
2,1, 7,21, 0,15,20.00,30.00,SummerDesignDay
8,17.79999023167558
10,513352917.27121677
774,41949334.69930602
2,1, 7,21, 0,15,30.00,40.00,SummerDesignDay
8,17.79999023167558
10,513142677.15797629
774,58879767.684377629
2,1, 7,21, 0,15,40.00,50.00,SummerDesignDay
8,17.79999023167558
10,512816192.3369917
774,58879767.684377629
2,1, 7,21, 0,15,50.00,60.00,SummerDesignDay
8,17.79999023167558
10,512375910.447182
774,41918016.65271629
2,1, 7,21, 0,15, 0.00,60.00,SummerDesignDay
1008,23.997427051038586
1048,23.999127129783628
1088,23.999103006311299
1128,23.99905687274847
1168,23.999446721992415
1208,23.999597914341327
1248,23.9994544850983
1288,23.999480751333313
1328,23.998233240505614
1368,23.998948609623868
1408,23.999078540507143
1448,23.99910514162232
1488,23.999927919746587
1528,22.461825419568357
1568,25.73965514158951
1608,22.910423385202067
1648,22.75855101149107
1688,23.3775236917722
1728,24.50238028772591
1768,23.520170473419808
2,1, 7,21, 0,16, 0.00,10.00,SummerDesignDay
8,17.759562446305357
10,509065165.2015221
774,58879767.684377629
2,1, 7,21, 0,16,10.00,20.00,SummerDesignDay
8,17.71907809634183
10,506139975.3591609
774,58879767.684377629
2,1, 7,21, 0,16,20.00,30.00,SummerDesignDay
8,17.67853788661001
10,503163771.2444168
774,41342095.542778227
2,1, 7,21, 0,16,30.00,40.00,SummerDesignDay
8,17.63791796367351
10,499932346.38100758
774,58879767.684377629
2,1, 7,21, 0,16,40.00,50.00,SummerDesignDay
8,17.59724609886134
10,496676998.43749496
774,41292488.14203825
2,1, 7,21, 0,16,50.00,60.00,SummerDesignDay
8,17.55650676726033
10,493571989.37045016
774,58879767.684377629
2,1, 7,21, 0,16, 0.00,60.00,SummerDesignDay
1008,23.997290759381959
1048,23.99919318393127
1088,23.999162922014624
1128,23.999124443081869
1168,23.999432868867659
1208,23.999573383577798
1248,23.999340031488328
1288,23.999464116393395
1328,23.99882406912837
1368,23.998745158088526
1408,23.998878534286918
1448,23.998893251877396
1488,23.999926881141083
1528,22.63887386355783
1568,25.694162583733048
1608,23.10143324372298
1648,22.9608203986851
1688,24.03667235300783
1728,24.5976271484399
1768,23.700369564517599
2,1, 7,21, 0,17, 0.00,10.00,SummerDesignDay
8,17.50209486331892
10,491276243.3362936
774,36659495.72995077
2,1, 7,21, 0,17,10.00,20.00,SummerDesignDay
8,17.447570789624618
10,486989874.8412477
774,37949948.585397798
2,1, 7,21, 0,17,20.00,30.00,SummerDesignDay
8,17.392929544208135
10,483304072.80516716
774,47643439.17572257
2,1, 7,21, 0,17,30.00,40.00,SummerDesignDay
8,17.33818013976614
10,479748198.93704596
774,45208779.847908969
2,1, 7,21, 0,17,40.00,50.00,SummerDesignDay
8,17.283317298559309
10,476238114.7052452
774,36030932.54468193
2,1, 7,21, 0,17,50.00,60.00,SummerDesignDay
8,17.22833552437677
10,472731614.0961401
774,36002759.54808284
2,1, 7,21, 0,17, 0.00,60.00,SummerDesignDay
1008,23.997381488246217
1048,23.999258483549438
1088,23.99923740747818
1128,23.999217911980936
1168,23.999427500647454
1208,23.999564406486205
1248,23.99923684757995
1288,23.999444360213308
1328,23.99909637777864
1368,23.998659450624215
1408,23.998756291818564
1448,23.998691126076975
1488,23.99993478870957
1528,22.799642472591946
1568,25.396435008080148
1608,23.272999573572638
1648,23.13152033580184
1688,24.535086620329328
1728,24.65123911936845
1768,23.836809631084333
2,1, 7,21, 0,18, 0.00,10.00,SummerDesignDay
8,17.159453019160176
10,457493452.9335988
774,28255787.165852038
2,1, 7,21, 0,18,10.00,20.00,SummerDesignDay
8,17.090391773337136
10,452656790.92971876
774,27048441.66737327
2,1, 7,21, 0,18,20.00,30.00,SummerDesignDay
8,17.021151077964786
10,448332954.97820517
774,27036074.817302705
2,1, 7,21, 0,18,30.00,40.00,SummerDesignDay
8,16.951729380464653
10,444136067.6124569
774,27023554.237202575
2,1, 7,21, 0,18,40.00,50.00,SummerDesignDay
8,16.882126503829249
10,440049562.83473256
774,28547457.10716192
2,1, 7,21, 0,18,50.00,60.00,SummerDesignDay
8,16.812341807494034
10,436012984.31461396
774,30112083.004681808
2,1, 7,21, 0,18, 0.00,60.00,SummerDesignDay
1008,23.998127215177548
1048,23.9994086655775
1088,23.999399418314199
1128,23.99939629218648
1168,23.99935773397358
1208,23.999495402151568
1248,23.999094392844726
1288,23.99935705016382
1328,23.99911812099961
1368,23.998776056129164
1408,23.998877351036439
1448,23.998833541015548
1488,23.999877590588537
1528,22.87854159143085
1568,24.835132335334327
1608,23.365988828287887
1648,23.20942098077485
1688,24.81440590099794
1728,24.66841933264737
1768,23.883800335636609
2,1, 7,21, 0,19, 0.00,10.00,SummerDesignDay
8,16.707321072823203
10,374108868.2786101
774,24260258.72487737
2,1, 7,21, 0,19,10.00,20.00,SummerDesignDay
8,16.601881826644556
10,367567740.598999
774,23767434.406973196
2,1, 7,21, 0,19,20.00,30.00,SummerDesignDay
8,16.496030555252849
10,361891377.8610292
774,23798770.22395372
2,1, 7,21, 0,19,30.00,40.00,SummerDesignDay
8,16.389760181474104
10,356225360.6636388
774,23831731.070621708
2,1, 7,21, 0,19,40.00,50.00,SummerDesignDay
8,16.283067654262039
10,350602763.35523888
774,16478983.734308528
2,1, 7,21, 0,19,50.00,60.00,SummerDesignDay
8,16.17595057957811
10,344990897.31578776
774,14601562.8227348
2,1, 7,21, 0,19, 0.00,60.00,SummerDesignDay
1008,23.999198829947564
1048,23.99957571927816
1088,23.999566326820504
1128,23.999566238664106
1168,23.999519782775864
1208,23.99961739024391
1248,23.999273910961639
1288,23.9994918657235
1328,23.998671199127018
1368,23.99939787094205
1408,23.999417312535245
1448,23.999362523860709
1488,23.999885072488455
1528,22.93357463524337
1568,24.21874793332317
1608,23.435287318886439
1648,23.257036197823095
1688,24.920847870533178
1728,24.659094923256278
1768,23.902091786760196
2,1, 7,21, 0,20, 0.00,10.00,SummerDesignDay
8,16.097123145563505
10,252769419.61751405
774,14840022.862745988
2,1, 7,21, 0,20,10.00,20.00,SummerDesignDay
8,16.018070242471564
10,247285655.62434984
774,21173424.234498864
2,1, 7,21, 0,20,20.00,30.00,SummerDesignDay
8,15.938779752340516
10,242783552.33249403
774,21271542.651072869
2,1, 7,21, 0,20,30.00,40.00,SummerDesignDay
8,15.85926152575189
10,238220131.91143004
774,7791910.890236834
2,1, 7,21, 0,20,40.00,50.00,SummerDesignDay
8,15.779503718563929
10,233609144.09503976
774,13418630.52577385
2,1, 7,21, 0,20,50.00,60.00,SummerDesignDay
8,15.699515709672767
10,228924335.97500897
774,21172701.761449089
2,1, 7,21, 0,20, 0.00,60.00,SummerDesignDay
1008,23.99973585854151
1048,23.66475624524743
1088,23.99809603309507
1128,23.99958383564721
1168,23.99976314498885
1208,23.999800048441199
1248,23.999635144349758
1288,23.99977333859452
1328,23.997771781070669
1368,23.99977836668602
1408,23.999745957070748
1448,23.999725434332644
1488,23.999941596011614
1528,22.98023063657564
1568,23.78004250738631
1608,23.49755621589991
1648,23.28815044689408
1688,24.851565090489257
1728,24.63752639772351
1768,23.938606308504658
2,1, 7,21, 0,21, 0.00,10.00,SummerDesignDay
8,15.63389147320404
10,207223376.2528339
774,22579429.874285487
2,1, 7,21, 0,21,10.00,20.00,SummerDesignDay
8,15.56810827419793
10,202944294.4533379
774,19367461.098239289
2,1, 7,21, 0,21,20.00,30.00,SummerDesignDay
8,15.502170882753524
10,198794088.29282297
774,10447294.040902472
2,1, 7,21, 0,21,30.00,40.00,SummerDesignDay
8,15.436068032613852
10,194770454.70261178
774,15658663.729985599
2,1, 7,21, 0,21,40.00,50.00,SummerDesignDay
8,15.369804371206009
10,190909588.01181583
774,22657332.614933663
2,1, 7,21, 0,21,50.00,60.00,SummerDesignDay
8,15.303384603594449
10,187046466.22460843
774,22703839.74836329
2,1, 7,21, 0,21, 0.00,60.00,SummerDesignDay
1008,23.99986198483749
1048,22.93385759095379
1088,23.601336568217353
1128,23.913541734220887
1168,24.002908135423515
1208,23.98484759544979
1248,23.999806416150837
1288,24.001315755207277
1328,23.99713616903529
1368,23.999885121094026
1408,23.99986151845376
1448,23.99985154660189
1488,23.999982519256766
1528,23.037730071561655
1568,23.447396542628327
1608,23.559386777424476
1648,23.329195014332215
1688,24.59124884978844
1728,24.595608897218538
1768,23.96280151652788
2,1, 7,21, 0,22, 0.00,10.00,SummerDesignDay
8,15.236797685071274
10,74444928.50515522
774,21129638.160241609
2,1, 7,21, 0,22,10.00,20.00,SummerDesignDay
8,15.170047891787942
10,74382934.92635612
774,2544475.088396528
2,1, 7,21, 0,22,20.00,30.00,SummerDesignDay
8,15.103134826860483
10,74317558.5618701
774,18496377.098381867
2,1, 7,21, 0,22,30.00,40.00,SummerDesignDay
8,15.036063385178485
10,74266734.2639873
774,21035106.837895868