Program Version,EnergyPlus, Version 8.9.0-eba93e8e1b, YMD=2019.03.20 17:53
1,5,Environment Title[],Latitude[deg],Longitude[deg],Time Zone[],Elevation[m]
2,8,Day of Simulation[],Month[],Day of Month[],DST Indicator[1=yes 0=no],Hour[],StartMinute[],EndMinute[],DayType
3,5,Cumulative Day of Simulation[],Month[],Day of Month[],DST Indicator[1=yes 0=no],DayType  ! When Daily Report Variables Requested
4,2,Cumulative Days of Simulation[],Month[]  ! When Monthly Report Variables Requested
5,1,Cumulative Days of Simulation[] ! When Run Period Report Variables Requested
6,1,Calendar Year of Simulation[] ! When Annual Report Variables Requested
7,9,Environment,Site Outdoor Air Drybulb Temperature [C] !Monthly [Value,Min,Day,Hour,Minute,Max,Day,Hour,Minute]
8,1,Environment,Site Outdoor Air Wetbulb Temperature [C] !TimeStep
1073,1,ALL_ST=ATRIUM - H < 13M_FL=STORY 2_SCH=C,Zone Air Temperature [C] !Hourly
1074,7,ALL_ST=ATRIUM - H < 13M_FL=STORY 2_SCH=C,Zone Air Relative Humidity [%] !Daily [Value,Min,Hour,Minute,Max,Hour,Minute]
1113,1,ALL_ST=ATRIUM - H > 13M_FL=STORY 4_SCH=C,Zone Air Temperature [C] !Hourly
1114,7,ALL_ST=ATRIUM - H > 13M_FL=STORY 4_SCH=C,Zone Air Relative Humidity [%] !Daily [Value,Min,Hour,Minute,Max,Hour,Minute]
1153,1,ALL_ST=AUDIENCE - AUDITORIUM_FL=STORY 1_SCH=C,Zone Air Temperature [C] !Hourly
1154,7,ALL_ST=AUDIENCE - AUDITORIUM_FL=STORY 1_SCH=C,Zone Air Relative Humidity [%] !Daily [Value,Min,Hour,Minute,Max,Hour,Minute]
1193,1,ALL_ST=AUDIENCE - MOTION PICTURE_FL=STORY 1_SCH=C,Zone Air Temperature [C] !Hourly
1194,7,ALL_ST=AUDIENCE - MOTION PICTURE_FL=STORY 1_SCH=C,Zone Air Relative Humidity [%] !Daily [Value,Min,Hour,Minute,Max,Hour,Minute]
1233,1,ALL_ST=AUDIENCE - PERFORMANCE ARTS_FL=STORY 3_SCH=C,Zone Air Temperature [C] !Hourly
1234,7,ALL_ST=AUDIENCE - PERFORMANCE ARTS_FL=STORY 3_SCH=C,Zone Air Relative Humidity [%] !Daily [Value,Min,Hour,Minute,Max,Hour,Minute]
1273,1,ALL_ST=AUTOMOTIVE - REPAIR_FL=STORY 1_SCH=E,Zone Air Temperature [C] !Hourly
1274,7,ALL_ST=AUTOMOTIVE - REPAIR_FL=STORY 1_SCH=E,Zone Air Relative Humidity [%] !Daily [Value,Min,Hour,Minute,Max,Hour,Minute]
1313,1,ALL_ST=BANK - BANKING AND OFFICES_FL=STORY 1_SCH=A,Zone Air Temperature [C] !Hourly
1314,7,ALL_ST=BANK - BANKING AND OFFICES_FL=STORY 1_SCH=A,Zone Air Relative Humidity [%] !Daily [Value,Min,Hour,Minute,Max,Hour,Minute]
1353,1,ALL_ST=CLASSROOM/LECTURE/TRAINING_FL=STORY 2_SCH=D,Zone Air Temperature [C] !Hourly
1354,7,ALL_ST=CLASSROOM/LECTURE/TRAINING_FL=STORY 2_SCH=D,Zone Air Relative Humidity [%] !Daily [Value,Min,Hour,Minute,Max,Hour,Minute]
1393,1,ALL_ST=CONF./MEET./MULTI-PURPOSE_FL=STORY 4_SCH=C,Zone Air Temperature [C] !Hourly
1394,7,ALL_ST=CONF./MEET./MULTI-PURPOSE_FL=STORY 4_SCH=C,Zone Air Relative Humidity [%] !Daily [Value,Min,Hour,Minute,Max,Hour,Minute]
1433,1,ALL_ST=CONVENTION CENTRE - AUDIENCE_FL=STORY 3_SCH=C,Zone Air Temperature [C] !Hourly
1434,7,ALL_ST=CONVENTION CENTRE - AUDIENCE_FL=STORY 3_SCH=C,Zone Air Relative Humidity [%] !Daily [Value,Min,Hour,Minute,Max,Hour,Minute]
1473,1,ALL_ST=CONVENTION CENTRE - EXHIBIT_FL=STORY 2_SCH=C,Zone Air Temperature [C] !Hourly
1474,7,ALL_ST=CONVENTION CENTRE - EXHIBIT_FL=STORY 2_SCH=C,Zone Air Relative Humidity [%] !Daily [Value,Min,Hour,Minute,Max,Hour,Minute]
1513,1,ALL_ST=WHOLEBUILDING_FL=STORY 1_SCH=D,Zone Air Temperature [C] !Hourly
1514,7,ALL_ST=WHOLEBUILDING_FL=STORY 1_SCH=D,Zone Air Relative Humidity [%] !Daily [Value,Min,Hour,Minute,Max,Hour,Minute]
1553,1,ALL_ST=WHOLEBUILDING_FL=STORY 2_SCH=C,Zone Air Temperature [C] !Hourly
1554,7,ALL_ST=WHOLEBUILDING_FL=STORY 2_SCH=C,Zone Air Relative Humidity [%] !Daily [Value,Min,Hour,Minute,Max,Hour,Minute]
1593,1,ALL_ST=WHOLEBUILDING_FL=STORY 3_SCH=A,Zone Air Temperature [C] !Hourly
1594,7,ALL_ST=WHOLEBUILDING_FL=STORY 3_SCH=A,Zone Air Relative Humidity [%] !Daily [Value,Min,Hour,Minute,Max,Hour,Minute]
1633,1,ALL_ST=WHOLEBUILDING_FL=STORY 3_SCH=H,Zone Air Temperature [C] !Hourly
1634,7,ALL_ST=WHOLEBUILDING_FL=STORY 3_SCH=H,Zone Air Relative Humidity [%] !Daily [Value,Min,Hour,Minute,Max,Hour,Minute]
1673,1,ALL_ST=WHOLEBUILDING_FL=STORY 3_SCH=I,Zone Air Temperature [C] !Hourly
1674,7,ALL_ST=WHOLEBUILDING_FL=STORY 3_SCH=I,Zone Air Relative Humidity [%] !Daily [Value,Min,Hour,Minute,Max,Hour,Minute]
1713,1,ALL_ST=WHOLEBUILDING_FL=STORY 4_SCH=C,Zone Air Temperature [C] !Hourly
1714,7,ALL_ST=WHOLEBUILDING_FL=STORY 4_SCH=C,Zone Air Relative Humidity [%] !Daily [Value,Min,Hour,Minute,Max,Hour,Minute]
1753,1,ALL_ST=WHOLEBUILDING_FL=STORY 4_SCH=H,Zone Air Temperature [C] !Hourly
1754,7,ALL_ST=WHOLEBUILDING_FL=STORY 4_SCH=H,Zone Air Relative Humidity [%] !Daily [Value,Min,Hour,Minute,Max,Hour,Minute]
1793,1,DU_BT=PENITENTIARY_ST=WHOLEBUILDING_FL=STORY 4_SCHH,Zone Air Temperature [C] !Hourly
1794,7,DU_BT=PENITENTIARY_ST=WHOLEBUILDING_FL=STORY 4_SCHH,Zone Air Relative Humidity [%] !Daily [Value,Min,Hour,Minute,Max,Hour,Minute]
1833,1,WILD_ST=CORR. < 2.4M WIDE-SCH-A_FL=STORY 2_SCH=C,Zone Air Temperature [C] !Hourly
1834,7,WILD_ST=CORR. < 2.4M WIDE-SCH-A_FL=STORY 2_SCH=C,Zone Air Relative Humidity [%] !Daily [Value,Min,Hour,Minute,Max,Hour,Minute]
10,1,Electricity:Facility [J] !TimeStep
839,1,Gas:Facility [J] !TimeStep
End of Data Dictionary
1,FORT MCMURRAY AP ANN CLG .4% CONDNS DB=>MWB,  56.65,-111.22,  -7.00, 369.10
2,1, 7,21, 0, 1, 0.00,10.00,SummerDesignDay
8,14.218136923962174
10,111346198.15975955
839,12000.0
2,1, 7,21, 0, 1,10.00,20.00,SummerDesignDay
8,14.171982153293495
10,111218140.02981736
839,46999780.56581395
2,1, 7,21, 0, 1,20.00,30.00,SummerDesignDay
8,14.125744780286427
10,110898236.07377933
839,46673363.28848521
2,1, 7,21, 0, 1,30.00,40.00,SummerDesignDay
8,14.079436086331978
10,110458140.0845066
839,12000.0
2,1, 7,21, 0, 1,40.00,50.00,SummerDesignDay
8,14.033050387896898
10,110489938.9180367
839,46377558.72660362
2,1, 7,21, 0, 1,50.00,60.00,SummerDesignDay
8,13.986581233564835
10,110169938.89414729
839,46621772.05088721
2,1, 7,21, 0, 1, 0.00,60.00,SummerDesignDay
1073,23.580515504402375
1113,21.54692758182585
1153,21.101562899041395
1193,21.298059439798185
1233,22.246833032971467
1273,22.768132217970345
1313,23.47978160908951
1353,22.307651420502685
1393,22.6768595034108
1433,21.813316177717696
1473,24.508606088502629
1513,23.66520738343013
1553,23.436173841638575
1593,24.04522433712984
1633,23.998802722412746
1673,25.130748976992167
1713,23.627959289934905
1753,24.002077111541849
1793,23.99918868834561
1833,24.947834988277646
2,1, 7,21, 0, 2, 0.00,10.00,SummerDesignDay
8,13.95555882260429
10,104315210.60052714
839,3550709.600020779
2,1, 7,21, 0, 2,10.00,20.00,SummerDesignDay
8,13.924507755336454
10,104188404.94192066
839,42527075.742836479
2,1, 7,21, 0, 2,20.00,30.00,SummerDesignDay
8,13.893416042989206
10,104076644.80133583
839,46877073.26577699
2,1, 7,21, 0, 2,30.00,40.00,SummerDesignDay
8,13.862289589689029
10,103941513.22701258
839,8875390.570968036
2,1, 7,21, 0, 2,40.00,50.00,SummerDesignDay
8,13.831134407608739
10,103812314.26807712
839,37238276.67299321
2,1, 7,21, 0, 2,50.00,60.00,SummerDesignDay
8,13.799938415548118
10,103703354.6739687
839,46245601.30248468
2,1, 7,21, 0, 2, 0.00,60.00,SummerDesignDay
1073,23.45102672206292
1113,21.365022984673403
1153,20.6593191537993
1193,20.852664960709075
1233,21.785564623361524
1273,22.46943006549921
1313,23.39002532388415
1353,21.92205698344741
1393,22.208059383798653
1433,21.358805526230684
1473,24.206030533642548
1513,23.40772422755275
1553,23.29034798726126
1593,23.87470958645963
1633,23.998502293599559
1673,24.947888122497245
1713,23.244595707012608
1753,23.918502747453759
1793,23.999023919421025
1833,24.818571990146017
2,1, 7,21, 0, 3, 0.00,10.00,SummerDesignDay
8,13.776521671948676
10,103581949.41923301
839,14056083.634453016
2,1, 7,21, 0, 3,10.00,20.00,SummerDesignDay
8,13.753085235778466
10,103464181.49558918
839,32107384.820983463
2,1, 7,21, 0, 3,20.00,30.00,SummerDesignDay
8,13.729636002354969
10,103370100.3567356
839,46220797.50282703
2,1, 7,21, 0, 3,30.00,40.00,SummerDesignDay
8,13.706147375533054
10,103251219.15278465
839,19049307.39568967
2,1, 7,21, 0, 3,40.00,50.00,SummerDesignDay
8,13.682651961920304
10,103133310.64325963
839,27169456.703337697
2,1, 7,21, 0, 3,50.00,60.00,SummerDesignDay
8,13.659136670643687
10,103041385.2581456
839,46198397.395644817
2,1, 7,21, 0, 3, 0.00,60.00,SummerDesignDay
1073,23.320412880735714
1113,21.212094698943763
1153,20.331431174145238
1193,20.51930205790657
1233,21.432497994450743
1273,22.237998370934095
1313,23.31024900949483
1353,21.629732151859288
1393,21.833372045918229
1433,21.011223757715546
1473,23.945313411934547
1513,23.19602961772688
1553,23.145086389846058
1593,23.704215292274229
1633,23.998556584913744
1673,24.490049149907905
1713,22.927367151897476
1753,23.68911766152621
1793,23.999104466511967
1833,24.712037928539517
2,1, 7,21, 0, 4, 0.00,10.00,SummerDesignDay
8,13.63560137410855
10,102924993.4882059
839,23842720.245821995
2,1, 7,21, 0, 4,10.00,20.00,SummerDesignDay
8,13.612040802606578
10,102807067.35218838
839,22431497.196506598
2,1, 7,21, 0, 4,20.00,30.00,SummerDesignDay
8,13.58846620506876
10,102716494.29120003
839,46178243.430932018
2,1, 7,21, 0, 4,30.00,40.00,SummerDesignDay
8,13.56487178447336
10,102602518.63692388
839,28444655.468602167
2,1, 7,21, 0, 4,40.00,50.00,SummerDesignDay
8,13.541257354069103
10,102484618.37734416
839,17881072.542974418
2,1, 7,21, 0, 4,50.00,60.00,SummerDesignDay
8,13.517617463812285
10,102394660.63745287
839,46160106.75672455
2,1, 7,21, 0, 4, 0.00,60.00,SummerDesignDay
1073,23.182015104689059
1113,21.0733500218026
1153,20.043011752889087
1193,20.224037477676587
1233,21.117311592033436
1273,22.030878960237787
1313,23.233730859689446
1353,21.36751685582944
1393,21.500780553643027
1433,20.700804207671046
1473,23.699357114406607
1513,23.002381342573114
1553,22.997229349590055
1593,23.532604111288604
1633,23.99860231052244
1673,24.206977758726269
1713,22.64779173371127
1753,23.41911071477152
1793,23.999178791689599
1833,24.613752132535536
2,1, 7,21, 0, 5, 0.00,10.00,SummerDesignDay
8,13.50185415824011
10,102295314.20873526
839,32878597.468719938
2,1, 7,21, 0, 5,10.00,20.00,SummerDesignDay
8,13.486076034032447
10,102570323.7031615
839,13491621.106906975
2,1, 7,21, 0, 5,20.00,30.00,SummerDesignDay
8,13.470289340350983
10,102878207.70108478
839,46143730.90220005
2,1, 7,21, 0, 5,30.00,40.00,SummerDesignDay
8,13.454493322631063
10,103216808.74108751
839,37179104.13848504
2,1, 7,21, 0, 5,40.00,50.00,SummerDesignDay
8,13.438688835118548
10,103594352.04986327
839,9226185.049707622
2,1, 7,21, 0, 5,50.00,60.00,SummerDesignDay
8,13.422888173889437
10,103991064.51213072
839,46128859.055437948
2,1, 7,21, 0, 5, 0.00,60.00,SummerDesignDay
1073,23.04604716987591
1113,21.000811465183025
1153,19.786479715344595
1193,19.960157536920219
1233,20.920452542815999
1273,21.83835608623083
1313,23.159047852725068
1353,21.182409649522027
1393,21.25029576801707
1433,20.426840279413744
1473,23.55831923272106
1513,22.818490808020277
1553,22.855100446324955
1593,23.43025799527264
1633,23.998641330299319
1673,23.956290050420298
1713,22.554595323735709
1753,23.20300066679079
1793,23.99904281397272
1833,24.519099486527968
2,1, 7,21, 0, 6, 0.00,10.00,SummerDesignDay
8,13.438688835118548
10,104384010.23506983
839,41389442.69962204
2,1, 7,21, 0, 6,10.00,20.00,SummerDesignDay
8,13.454493322631063
10,104762520.25006883
839,5039381.349562836
2,1, 7,21, 0, 6,20.00,30.00,SummerDesignDay
8,13.470289340350983
10,105157504.45634596
839,46115249.0268696
2,1, 7,21, 0, 6,30.00,40.00,SummerDesignDay
8,13.486076034032447
10,105524956.83810534
839,45560972.97053908
2,1, 7,21, 0, 6,40.00,50.00,SummerDesignDay
8,13.50185415824011
10,105861043.05731575
839,877595.7847248814
2,1, 7,21, 0, 6,50.00,60.00,SummerDesignDay
8,13.517617463812285
10,106201419.95880975
839,46102680.12252644
2,1, 7,21, 0, 6, 0.00,60.00,SummerDesignDay
1073,22.930887711378916
1113,21.153078327115727
1153,19.689793271696926
1193,19.863097420438235
1233,21.114066509712658
1273,21.722941335300644
1313,23.086140712211088
1353,21.154933704267248
1393,21.28570446259717
1433,20.32233939322236
1473,23.82356213251101
1513,22.690478148924126
1553,22.738549004758665
1593,23.410902445254285
1633,23.998670277128587
1673,23.781373457591174
1713,22.88912139921045
1753,23.25345784781608
1793,23.998394436784975
1833,24.45371908493175
2,1, 7,21, 0, 7, 0.00,10.00,SummerDesignDay
8,13.572736920571789
10,106580341.0304755
839,46406653.16188434
2,1, 7,21, 0, 7,10.00,20.00,SummerDesignDay
8,13.627748229152554
10,106935102.11681696
839,12000.0
2,1, 7,21, 0, 7,20.00,30.00,SummerDesignDay
8,13.682651961920304
10,107304355.60147462
839,46090491.97901764
2,1, 7,21, 0, 7,30.00,40.00,SummerDesignDay
8,13.737448093244995
10,107666869.64772494
839,46380608.43771309
2,1, 7,21, 0, 7,40.00,50.00,SummerDesignDay
8,13.792137011831216
10,108012050.97136444
839,12000.0
2,1, 7,21, 0, 7,50.00,60.00,SummerDesignDay
8,13.846719282840333
10,108369338.20905483
839,46077810.08033612
2,1, 7,21, 0, 7, 0.00,60.00,SummerDesignDay
1073,22.828478045172763
1113,21.53327203147767
1153,19.902652023181916
1193,20.09117751350148
1233,21.596851752864798
1273,21.7713229054358
1313,23.01832388371871
1353,21.261832138933074
1393,21.694870478502833
1433,20.5237505994387
1473,24.25238907500763
1513,22.68240067147582
1553,22.641127084255829
1593,23.26651939165579
1633,23.99869039873471
1673,23.735218173124907
1713,23.229834868521974
1753,23.62259577844728
1793,23.997712938150149
1833,24.447679770020483
2,1, 7,21, 0, 8, 0.00,10.00,SummerDesignDay
8,13.978831900527043
10,124724516.41604263
839,47387554.52175376
2,1, 7,21, 0, 8,10.00,20.00,SummerDesignDay
8,14.110321014287419
10,120026186.59253739
839,250282.07576875119
2,1, 7,21, 0, 8,20.00,30.00,SummerDesignDay
8,14.241191509616986
10,123841129.02219476
839,46291196.54405695
2,1, 7,21, 0, 8,30.00,40.00,SummerDesignDay
8,14.371447531304272
10,126805934.21741957
839,46529863.81917254
2,1, 7,21, 0, 8,40.00,50.00,SummerDesignDay
8,14.501093766564925
10,127776299.40535392
839,8104893.392695858
2,1, 7,21, 0, 8,50.00,60.00,SummerDesignDay
8,14.630134792273804
10,129280527.94143969
839,38240681.79887814
2,1, 7,21, 0, 8, 0.00,60.00,SummerDesignDay
1073,22.751357500675288
1113,22.249162655180656
1153,20.62943854789587
1193,20.8417838051852
1233,22.481088390910107
1273,22.087782439981113
1313,23.36568395610409
1353,21.789116167726119
1393,22.6576455551171
1433,21.229653754511209
1473,24.00030483117189
1513,22.86178065539191
1553,22.57218966561417
1593,23.46373529611317
1633,23.998814931053944
1673,23.896381569522619
1713,23.848996613625464
1753,23.99224683732461
1793,23.997220049895334
1833,23.98417020175624
2,1, 7,21, 0, 9, 0.00,10.00,SummerDesignDay
8,14.773641492809972
10,248093730.20227526
839,86501914.10714914
2,1, 7,21, 0, 9,10.00,20.00,SummerDesignDay
8,14.91640948124148
10,253872692.0517267
839,57575142.92197539
2,1, 7,21, 0, 9,20.00,30.00,SummerDesignDay
8,15.05843890714102
10,259463558.05234
839,57139647.8631527
2,1, 7,21, 0, 9,30.00,40.00,SummerDesignDay
8,15.199735893563798
10,263276683.6716669
839,49107957.64419702
2,1, 7,21, 0, 9,40.00,50.00,SummerDesignDay
8,15.340306256439395
10,267623723.3659464
839,41382887.5152581
2,1, 7,21, 0, 9,50.00,60.00,SummerDesignDay
8,15.48015101768072
10,272460290.76777276
839,41050694.51836509
2,1, 7,21, 0, 9, 0.00,60.00,SummerDesignDay
1073,22.889835752637578
1113,23.528825106712856
1153,22.468660838789828
1193,22.692935435837176
1233,23.853117602675714
1273,23.132717758781678
1313,23.96738007782989
1353,23.09827352224878
1393,23.934785717338895
1433,22.812221458934478
1473,23.999729082326849
1513,23.701568977701226
1553,23.0983270246673
1593,23.966122634375453
1633,23.99914564655606
1673,24.30746273615642
1713,23.999755567339716
1753,23.999912487618574
1793,23.99760107028115
1833,23.999937244835608
2,1, 7,21, 0,10, 0.00,10.00,SummerDesignDay
8,15.60467292907716
10,389866196.03092989
839,54081434.82104405
2,1, 7,21, 0,10,10.00,20.00,SummerDesignDay
8,15.72862731650033
10,401024077.09580436
839,54862202.35427218
2,1, 7,21, 0,10,20.00,30.00,SummerDesignDay
8,15.852017409284228
10,410542947.013144
839,61824872.220795888
2,1, 7,21, 0,10,30.00,40.00,SummerDesignDay
8,15.974848118364367
10,414910844.72183158
839,63646236.547373678
2,1, 7,21, 0,10,40.00,50.00,SummerDesignDay
8,16.097123145563505
10,421348599.15580216
839,63657498.32555717
2,1, 7,21, 0,10,50.00,60.00,SummerDesignDay
8,16.218846351168599
10,427618134.3818071
839,63673081.33487408
2,1, 7,21, 0,10, 0.00,60.00,SummerDesignDay
1073,23.200907846259118
1113,23.99995255691664
1153,23.83151950159093
1193,23.929310611724565
1233,23.999554800027189
1273,23.982247294915344
1313,23.999601014417775
1353,23.995908888316234
1393,23.999355852823795
1433,23.95406837575987
1473,23.999380709080169
1513,23.99823953022394
1553,23.90657922541151
1593,23.9996200316214
1633,23.998889684050544
1673,24.90329048886757
1713,23.999376704320658
1753,23.999800102634749
1793,23.996920980293866
1833,23.999883909704328
2,1, 7,21, 0,11, 0.00,10.00,SummerDesignDay
8,16.325793027093189
10,445281338.1847272
839,85906014.53592251
2,1, 7,21, 0,11,10.00,20.00,SummerDesignDay
8,16.432322158488288
10,451872485.2667294
839,89431485.0033676
2,1, 7,21, 0,11,20.00,30.00,SummerDesignDay
8,16.538424180249178
10,457287127.4540915
839,86610679.18320485
2,1, 7,21, 0,11,30.00,40.00,SummerDesignDay
8,16.644108396469087
10,462619103.0048245
839,76372537.06914354
2,1, 7,21, 0,11,40.00,50.00,SummerDesignDay
8,16.749376736593655
10,467788057.5741073
839,76343885.64855586
2,1, 7,21, 0,11,50.00,60.00,SummerDesignDay
8,16.854232613237156
10,472834959.53683969
839,76310866.6548416
2,1, 7,21, 0,11, 0.00,60.00,SummerDesignDay
1073,23.643163772066925
1113,23.99966071855378
1153,23.99948266870952
1193,23.999361591045685
1233,23.999251268414854
1273,23.99919312206495
1313,23.99934497831551
1353,23.997634372611335
1393,23.998524605832615
1433,23.999253575849804
1473,23.998721483141936
1513,23.997015601008873
1553,23.999934815512316
1593,23.999283505777556
1633,23.99864860269925
1673,25.580449643584456
1713,23.998881966100453
1753,23.999725457931416
1793,23.99660016510347
1833,23.999896652279799
2,1, 7,21, 0,12, 0.00,10.00,SummerDesignDay
8,16.92390823520069
10,476636196.4586117
839,80282390.7291477
2,1, 7,21, 0,12,10.00,20.00,SummerDesignDay
8,16.99340178950456
10,480590812.8612785
839,80641941.21008915
2,1, 7,21, 0,12,20.00,30.00,SummerDesignDay
8,17.06272006743463
10,484327239.9266115
839,89525044.0343197
2,1, 7,21, 0,12,30.00,40.00,SummerDesignDay
8,17.131853229172639
10,488029435.85196289
839,101699024.99940142
2,1, 7,21, 0,12,40.00,50.00,SummerDesignDay
8,17.200807172194087
10,491681220.5079549
839,101946138.20653236
2,1, 7,21, 0,12,50.00,60.00,SummerDesignDay
8,17.269582116758607
10,495358535.1232572
839,84300703.80362445
2,1, 7,21, 0,12, 0.00,60.00,SummerDesignDay
1073,23.84904498260777
1113,23.99934351386172
1153,23.99938496993389
1193,23.999194318213257
1233,23.99906613573501
1273,23.99907016481525
1313,23.999164096266509
1353,23.997285724955718
1393,23.99794141799607
1433,23.998925359399697
1473,23.998272125974386
1513,23.99628003273654
1553,23.999885416593597
1593,23.99902744826213
1633,23.998606807332679
1673,26.300086965832496
1713,23.99855717763617
1753,23.999753231863449
1793,23.996768790031458
1833,23.999930117867053
2,1, 7,21, 0,13, 0.00,10.00,SummerDesignDay
8,17.32447360221357
10,502731266.4065343
839,92824723.5843492
2,1, 7,21, 0,13,10.00,20.00,SummerDesignDay
8,17.379251291230806
10,507334685.960461
839,135378654.179817
2,1, 7,21, 0,13,20.00,30.00,SummerDesignDay
8,17.433921312061729
10,510634161.3070183
839,93817514.86749558
2,1, 7,21, 0,13,30.00,40.00,SummerDesignDay
8,17.488473222557489
10,514081487.1917425
839,135378654.179817
2,1, 7,21, 0,13,40.00,50.00,SummerDesignDay
8,17.542913447755134
10,517452429.68314436
839,93793073.60739874
2,1, 7,21, 0,13,50.00,60.00,SummerDesignDay
8,17.59724609886134
10,520701048.4392015
839,135378654.179817
2,1, 7,21, 0,13, 0.00,60.00,SummerDesignDay
1073,23.99433270175712
1113,23.999157217141389
1153,23.99892248720056
1193,23.9986521510523
1233,23.998558906448989
1273,23.998892586747137
1313,23.999233030478768
1353,23.99731088167924
1393,23.996913385573703
1433,23.998245046994794
1473,23.99730468318907
1513,23.996201742735808
1553,23.999684089272959
1593,23.999071729239544
1633,23.998549362120526
1673,26.831676389339625
1713,23.998003593820575
1753,23.99993806314848
1793,23.99669910035527
1833,23.99994140594473
2,1, 7,21, 0,14, 0.00,10.00,SummerDesignDay
8,17.6311450462694
10,522882673.39523759
839,96472689.40461643
2,1, 7,21, 0,14,10.00,20.00,SummerDesignDay
8,17.665000449016245
10,525129045.68413987
839,133126289.87122002
2,1, 7,21, 0,14,20.00,30.00,SummerDesignDay
8,17.698812743128934
10,527054080.57876208
839,133984425.57042346
2,1, 7,21, 0,14,30.00,40.00,SummerDesignDay
8,17.732582050940107
10,529106455.1025559
839,95773762.7911476
2,1, 7,21, 0,14,40.00,50.00,SummerDesignDay
8,17.766307345121004
10,530901364.3368307
839,135378654.179817
2,1, 7,21, 0,14,50.00,60.00,SummerDesignDay
8,17.79999023167558
10,532815100.6021662
839,94338850.27207536
2,1, 7,21, 0,14, 0.00,60.00,SummerDesignDay
1073,23.999182179151928
1113,23.99911900254907
1153,23.998585698263559
1193,23.998235578494076
1233,23.998083885448368
1273,23.998609874297107
1313,23.99928363341053
1353,23.99724016432428
1393,23.996038905179334
1433,23.99766199319423
1473,23.996519679457579
1513,23.996118630183408
1553,23.99954850602391
1593,23.999130558680858
1633,23.998478447335648
1673,27.23456714495708
1713,23.997588635354608
1753,23.999988315046634
1793,23.996658538511068
1833,23.999938586758487
2,1, 7,21, 0,15, 0.00,10.00,SummerDesignDay
8,17.79999023167558
10,545991100.4039266
839,135579454.46927498
2,1, 7,21, 0,15,10.00,20.00,SummerDesignDay
8,17.79999023167558
10,543865943.0072044
839,94196758.59409988
2,1, 7,21, 0,15,20.00,30.00,SummerDesignDay
8,17.79999023167558
10,541597838.5213602
839,135378654.179817
2,1, 7,21, 0,15,30.00,40.00,SummerDesignDay
8,17.79999023167558
10,541413507.3358536
839,94016296.43145114
2,1, 7,21, 0,15,40.00,50.00,SummerDesignDay
8,17.79999023167558
10,541893911.3713347
839,135378654.179817
2,1, 7,21, 0,15,50.00,60.00,SummerDesignDay
8,17.79999023167558
10,541719499.4255297
839,121420046.2425269
2,1, 7,21, 0,15, 0.00,60.00,SummerDesignDay
1073,23.999195073852908
1113,23.999404193292106
1153,23.998976555538009
1193,23.99871535277896
1233,23.99859304567143
1273,23.99905083040139
1313,23.999392960673885
1353,23.99795951845802
1393,23.99680122554213
1433,23.998312146681028
1473,23.99727521870103
1513,23.997079109384015
1553,23.999643734547559
1593,23.999283975293854
1633,23.998831471136147
1673,24.217842513162784
1713,23.998233422166334
1753,24.000032501947474
1793,23.99765313964592
1833,23.999945108621387
2,1, 7,21, 0,16, 0.00,10.00,SummerDesignDay
8,17.759562446305357
10,547455403.1799907
839,108046538.31391385
2,1, 7,21, 0,16,10.00,20.00,SummerDesignDay
8,17.71907809634183
10,545596148.5234633
839,135378654.179817
2,1, 7,21, 0,16,20.00,30.00,SummerDesignDay
8,17.67853788661001
10,543735905.1691588
839,94118866.97169474
2,1, 7,21, 0,16,30.00,40.00,SummerDesignDay
8,17.63791796367351
10,541568391.9835916
839,135378654.179817
2,1, 7,21, 0,16,40.00,50.00,SummerDesignDay
8,17.59724609886134
10,539419461.2210155
839,94083610.49065961
2,1, 7,21, 0,16,50.00,60.00,SummerDesignDay
8,17.55650676726033
10,537092908.3994249
839,135378654.179817
2,1, 7,21, 0,16, 0.00,60.00,SummerDesignDay
1073,23.998803152463279
1113,23.999246658292916
1153,23.998512477425839
1193,23.99815335874439
1233,23.99800825832465
1273,23.998579499931805
1313,23.999135885748144
1353,23.997114652297684
1393,23.995454682828126
1433,23.997666781727945
1473,23.996086738469285
1513,23.995839934551485
1553,23.99951170520784
1593,23.99899381030153
1633,23.99831204852272
1673,23.99974070758942
1713,23.99760927585875
1753,23.999892203905504
1793,23.99691832113716
1833,23.999892444716875
2,1, 7,21, 0,17, 0.00,10.00,SummerDesignDay
8,17.50209486331892
10,527663896.0627086
839,86689051.26453428
2,1, 7,21, 0,17,10.00,20.00,SummerDesignDay
8,17.447570789624618
10,523889569.1756985
839,85610424.06725127
2,1, 7,21, 0,17,20.00,30.00,SummerDesignDay
8,17.392929544208135
10,520943409.18924799
839,113747419.21647005
2,1, 7,21, 0,17,30.00,40.00,SummerDesignDay
8,17.33818013976614
10,518166399.54867276
839,107290927.56833659
2,1, 7,21, 0,17,40.00,50.00,SummerDesignDay
8,17.283317298559309
10,515342214.55085018
839,85744412.64726568
2,1, 7,21, 0,17,50.00,60.00,SummerDesignDay
8,17.22833552437677
10,512519080.76153209
839,85654274.09466848
2,1, 7,21, 0,17, 0.00,60.00,SummerDesignDay
1073,23.998781009620406
1113,23.999243176455424
1153,23.998397015933308
1193,23.998034226006785
1233,23.99792790456883
1273,23.998514070093078
1313,23.999145467168707
1353,23.99797372954528
1393,23.995217548129874
1433,23.997610723516428
1473,23.99572504762767
1513,23.997042188539113
1553,23.999494863800466
1593,23.999030519075629
1633,23.998225764384136
1673,23.999581734193794
1713,23.997694672913864
1753,23.999904432044209
1793,23.997233800931004
1833,23.999845247251426
2,1, 7,21, 0,18, 0.00,10.00,SummerDesignDay
8,17.159453019160176
10,491004181.96866598
839,67250607.18798912
2,1, 7,21, 0,18,10.00,20.00,SummerDesignDay
8,17.090391773337136
10,486161616.0341823
839,64323171.88576366
2,1, 7,21, 0,18,20.00,30.00,SummerDesignDay
8,17.021151077964786
10,482439013.5529267
839,68904497.3653315
2,1, 7,21, 0,18,30.00,40.00,SummerDesignDay
8,16.951729380464653
10,478801965.70406147
839,71294327.87449353
2,1, 7,21, 0,18,40.00,50.00,SummerDesignDay
8,16.882126503829249
10,475235264.3744823
839,71305015.43931303
2,1, 7,21, 0,18,50.00,60.00,SummerDesignDay
8,16.812341807494034
10,471699514.83346936
839,71316322.3954676
2,1, 7,21, 0,18, 0.00,60.00,SummerDesignDay
1073,23.99890126330045
1113,23.99932592037946
1153,23.99850613014371
1193,23.998172999779866
1233,23.998032056914693
1273,23.99850703031556
1313,23.999320658051564
1353,23.99899518197591
1393,23.996021749896529
1433,23.99778905609728
1473,23.996110361452094
1513,23.99851591425227
1553,23.999535824251966
1593,23.999226828658896
1633,23.998166822005449
1673,23.99950979727521
1713,23.998148007436666
1753,23.999929211598088
1793,23.99763069613164
1833,23.99980924672717
2,1, 7,21, 0,19, 0.00,10.00,SummerDesignDay
8,16.707321072823203
10,436151820.52469679
839,67310899.230581
2,1, 7,21, 0,19,10.00,20.00,SummerDesignDay
8,16.601881826644556
10,430681235.8889178
839,66904031.85033338
2,1, 7,21, 0,19,20.00,30.00,SummerDesignDay
8,16.496030555252849
10,425760828.5325948
839,66915857.03460934
2,1, 7,21, 0,19,30.00,40.00,SummerDesignDay
8,16.389760181474104
10,420909546.39403149
839,66927722.1669526
2,1, 7,21, 0,19,40.00,50.00,SummerDesignDay
8,16.283067654262039
10,416118054.05094888
839,66939604.79385846
2,1, 7,21, 0,19,50.00,60.00,SummerDesignDay
8,16.17595057957811
10,411341866.2517986
839,66951503.594315309
2,1, 7,21, 0,19, 0.00,60.00,SummerDesignDay
1073,23.99916387191332
1113,23.999493970610627
1153,23.998977273432407
1193,23.998725397253087
1233,23.998470672416035
1273,23.999414516803559
1313,23.999594764775414
1353,23.999442103291359
1393,23.9973801204538
1433,23.998442420754669
1473,23.997087425940874
1513,23.999067668255138
1553,23.99964380187404
1593,23.999604508207168
1633,23.99812072422441
1673,23.998826296459258
1713,23.99874925172144
1753,23.999952318536527
1793,23.998001742590039
1833,23.999790503161866
2,1, 7,21, 0,20, 0.00,10.00,SummerDesignDay
8,16.097123145563505
10,337411994.69519177
839,57467615.00865569
2,1, 7,21, 0,20,10.00,20.00,SummerDesignDay
8,16.018070242471564
10,332644858.4758922
839,52622200.07651353
2,1, 7,21, 0,20,20.00,30.00,SummerDesignDay
8,15.938779752340516
10,328821393.1549587
839,52560267.86120321
2,1, 7,21, 0,20,30.00,40.00,SummerDesignDay
8,15.85926152575189
10,324965522.69750019
839,52493158.00255716
2,1, 7,21, 0,20,40.00,50.00,SummerDesignDay
8,15.779503718563929
10,321037167.10087957
839,52424201.68195799
2,1, 7,21, 0,20,50.00,60.00,SummerDesignDay
8,15.699515709672767
10,316975791.96101096
839,52353476.32378659
2,1, 7,21, 0,20, 0.00,60.00,SummerDesignDay
1073,23.999501559838348
1113,23.895937798638273
1153,23.99951879698314
1193,23.999390910301235
1233,23.9992227437174
1273,24.47270129022468
1313,23.999750614585868
1353,23.999117118734259
1393,23.998757385090049
1433,23.999198858167973
1473,23.99836936327905
1513,23.998711514178809
1553,23.999822766100399
1593,23.999685948589986
1633,23.998120595365348
1673,23.99721718604918
1713,23.999352614013277
1753,23.99997012504495
1793,23.998260626995486
1833,23.999849200891146
2,1, 7,21, 0,21, 0.00,10.00,SummerDesignDay
8,15.63389147320404
10,294199273.5485762
839,54399389.3104664
2,1, 7,21, 0,21,10.00,20.00,SummerDesignDay
8,15.56810827419793
10,290092211.37846699
839,62250251.10150975
2,1, 7,21, 0,21,20.00,30.00,SummerDesignDay
8,15.502170882753524
10,286076324.08557936
839,62265002.0949265
2,1, 7,21, 0,21,30.00,40.00,SummerDesignDay
8,15.436068032613852
10,281858995.5323576
839,62283396.692920129
2,1, 7,21, 0,21,40.00,50.00,SummerDesignDay
8,15.369804371206009
10,278388254.1684166
839,62302003.62437162
2,1, 7,21, 0,21,50.00,60.00,SummerDesignDay
8,15.303384603594449
10,274804276.21083638
839,62320636.5744507
2,1, 7,21, 0,21, 0.00,60.00,SummerDesignDay
1073,23.999662382806993
1113,23.44104845937933
1153,23.98799500055888
1193,23.99964591733952
1233,23.99949708513023
1273,24.25899901006149
1313,23.999798792991439
1353,23.999039816531039
1393,23.99938985424711
1433,23.999460167417238
1473,23.998844906606839
1513,23.998644798002379
1553,23.999877025394608
1593,23.99976460268221
1633,23.998176487332417
1673,23.996577117193167
1713,23.99962011373789
1753,23.99998500192059
1793,23.998478693467005
1833,23.999893867288824
2,1, 7,21, 0,22, 0.00,10.00,SummerDesignDay
8,15.236797685071274
10,163846439.71125344
839,52296308.18160887
2,1, 7,21, 0,22,10.00,20.00,SummerDesignDay
8,15.170047891787942
10,163048434.18110574
839,42072381.26516466
2,1, 7,21, 0,22,20.00,30.00,SummerDesignDay