Program Version,EnergyPlus, Version 8.9.0-eba93e8e1b, YMD=2019.04.04 17:58
1,5,Environment Title[],Latitude[deg],Longitude[deg],Time Zone[],Elevation[m]
2,8,Day of Simulation[],Month[],Day of Month[],DST Indicator[1=yes 0=no],Hour[],StartMinute[],EndMinute[],DayType
3,5,Cumulative Day of Simulation[],Month[],Day of Month[],DST Indicator[1=yes 0=no],DayType  ! When Daily Report Variables Requested
4,2,Cumulative Days of Simulation[],Month[]  ! When Monthly Report Variables Requested
5,1,Cumulative Days of Simulation[] ! When Run Period Report Variables Requested
6,1,Calendar Year of Simulation[] ! When Annual Report Variables Requested
7,9,Environment,Site Outdoor Air Drybulb Temperature [C] !Monthly [Value,Min,Day,Hour,Minute,Max,Day,Hour,Minute]
8,1,Environment,Site Outdoor Air Wetbulb Temperature [C] !TimeStep
357,1,PENITENTIARY - AUDIENCE-SPACE FUNCTION ZN,Zone Air Temperature [C] !Hourly
358,7,PENITENTIARY - AUDIENCE-SPACE FUNCTION ZN,Zone Air Relative Humidity [%] !Daily [Value,Min,Hour,Minute,Max,Hour,Minute]
397,1,PENITENTIARY - CLASSROOM-SPACE FUNCTION ZN,Zone Air Temperature [C] !Hourly
398,7,PENITENTIARY - CLASSROOM-SPACE FUNCTION ZN,Zone Air Relative Humidity [%] !Daily [Value,Min,Hour,Minute,Max,Hour,Minute]
437,1,PENITENTIARY - DINING-SPACE FUNCTION ZN,Zone Air Temperature [C] !Hourly
438,7,PENITENTIARY - DINING-SPACE FUNCTION ZN,Zone Air Relative Humidity [%] !Daily [Value,Min,Hour,Minute,Max,Hour,Minute]
477,1,POST OFFICE SORTING-SPACE FUNCTION ZN,Zone Air Temperature [C] !Hourly
478,7,POST OFFICE SORTING-SPACE FUNCTION ZN,Zone Air Relative Humidity [%] !Daily [Value,Min,Hour,Minute,Max,Hour,Minute]
517,1,RELIGIOUS - AUDIENCE-SPACE FUNCTION ZN,Zone Air Temperature [C] !Hourly
518,7,RELIGIOUS - AUDIENCE-SPACE FUNCTION ZN,Zone Air Relative Humidity [%] !Daily [Value,Min,Hour,Minute,Max,Hour,Minute]
10,1,Electricity:Facility [J] !TimeStep
668,1,DistrictCooling:Facility [J] !TimeStep
631,1,DistrictHeating:Facility [J] !TimeStep
End of Data Dictionary
1,FORT MCMURRAY AP ANN CLG .4% CONDNS DB=>MWB,  56.65,-111.22,  -7.00, 369.10
2,1, 7,21, 0, 1, 0.00,10.00,SummerDesignDay
8,14.218136923962174
10,26885401.24191579
631,3005707.5051763986
668,0.0
2,1, 7,21, 0, 1,10.00,20.00,SummerDesignDay
8,14.171982153293495
10,26885401.24191579
631,3993254.0299637198
668,0.0
2,1, 7,21, 0, 1,20.00,30.00,SummerDesignDay
8,14.125744780286427
10,26885401.24191579
631,4704774.181598341
668,0.0
2,1, 7,21, 0, 1,30.00,40.00,SummerDesignDay
8,14.079436086331978
10,26885401.24191579
631,5406128.015398733
668,0.0
2,1, 7,21, 0, 1,40.00,50.00,SummerDesignDay
8,14.033050387896898
10,26885401.24191579
631,6080672.687135899
668,0.0
2,1, 7,21, 0, 1,50.00,60.00,SummerDesignDay
8,13.986581233564835
10,26885401.24191579
631,6746797.5110090919
668,0.0
2,1, 7,21, 0, 1, 0.00,60.00,SummerDesignDay
357,20.209328925415446
397,20.010532606883886
437,22.00016747477372
477,21.830707694051925
517,21.93590183459907
2,1, 7,21, 0, 2, 0.00,10.00,SummerDesignDay
8,13.95555882260429
10,12046774.738412774
631,12714988.266641468
668,0.0
2,1, 7,21, 0, 2,10.00,20.00,SummerDesignDay
8,13.924507755336454
10,12046774.738412774
631,13545645.265008405
668,0.0
2,1, 7,21, 0, 2,20.00,30.00,SummerDesignDay
8,13.893416042989206
10,12046774.738412774
631,14022470.964589294
668,0.0
2,1, 7,21, 0, 2,30.00,40.00,SummerDesignDay
8,13.862289589689029
10,12046774.738412774
631,14527683.79565306
668,0.0
2,1, 7,21, 0, 2,40.00,50.00,SummerDesignDay
8,13.831134407608739
10,12046774.738412774
631,15007547.543744989
668,0.0
2,1, 7,21, 0, 2,50.00,60.00,SummerDesignDay
8,13.799938415548118
10,12046774.738412774
631,15476354.024582766
668,0.0
2,1, 7,21, 0, 2, 0.00,60.00,SummerDesignDay
357,19.552109778008015
397,19.302997867031264
437,22.000000000005526
477,21.234195738773918
517,19.62875589804202
2,1, 7,21, 0, 3, 0.00,10.00,SummerDesignDay
8,13.776521671948676
10,6421821.553350139
631,0.0
668,0.0
2,1, 7,21, 0, 3,10.00,20.00,SummerDesignDay
8,13.753085235778466
10,6421821.553350139
631,0.0
668,0.0
2,1, 7,21, 0, 3,20.00,30.00,SummerDesignDay
8,13.729636002354969
10,6421821.553350139
631,0.0
668,0.0
2,1, 7,21, 0, 3,30.00,40.00,SummerDesignDay
8,13.706147375533054
10,6421821.553350139
631,0.0
668,0.0
2,1, 7,21, 0, 3,40.00,50.00,SummerDesignDay
8,13.682651961920304
10,6421821.553350139
631,0.0
668,0.0
2,1, 7,21, 0, 3,50.00,60.00,SummerDesignDay
8,13.659136670643687
10,6421821.553350139
631,0.0
668,0.0
2,1, 7,21, 0, 3, 0.00,60.00,SummerDesignDay
357,19.085566643938735
397,18.839823338868777
437,19.847565405915355
477,20.78542730492163
517,18.712886332917994
2,1, 7,21, 0, 4, 0.00,10.00,SummerDesignDay
8,13.63560137410855
10,6421821.553350139
631,0.0
668,0.0
2,1, 7,21, 0, 4,10.00,20.00,SummerDesignDay
8,13.612040802606578
10,6421821.553350139
631,0.0
668,0.0
2,1, 7,21, 0, 4,20.00,30.00,SummerDesignDay
8,13.58846620506876
10,6421821.553350139
631,0.0
668,0.0
2,1, 7,21, 0, 4,30.00,40.00,SummerDesignDay
8,13.56487178447336
10,6421821.553350139
631,0.0
668,0.0
2,1, 7,21, 0, 4,40.00,50.00,SummerDesignDay
8,13.541257354069103
10,6421821.553350139
631,0.0
668,0.0
2,1, 7,21, 0, 4,50.00,60.00,SummerDesignDay
8,13.517617463812285
10,6421821.553350139
631,0.0
668,0.0
2,1, 7,21, 0, 4, 0.00,60.00,SummerDesignDay
357,18.622851052366774
397,18.399896290645608
437,18.338169530401279
477,20.31036873839952
517,18.242466453867697
2,1, 7,21, 0, 5, 0.00,10.00,SummerDesignDay
8,13.50185415824011
10,6421821.553350139
631,0.0
668,0.0
2,1, 7,21, 0, 5,10.00,20.00,SummerDesignDay
8,13.486076034032447
10,6421821.553350139
631,720848.5908087181
668,0.0
2,1, 7,21, 0, 5,20.00,30.00,SummerDesignDay
8,13.470289340350983
10,6421821.553350139
631,1771396.9916827165
668,0.0
2,1, 7,21, 0, 5,30.00,40.00,SummerDesignDay
8,13.454493322631063
10,6421821.553350139
631,2043796.3130775868
668,0.0
2,1, 7,21, 0, 5,40.00,50.00,SummerDesignDay
8,13.438688835118548
10,6421821.553350139
631,2624682.038904316
668,0.0
2,1, 7,21, 0, 5,50.00,60.00,SummerDesignDay
8,13.422888173889437
10,6421821.553350139
631,3725986.06943429
668,0.0
2,1, 7,21, 0, 5, 0.00,60.00,SummerDesignDay
357,18.28734694943611
397,18.08363453754326
437,18.010493850292379
477,19.963040215840793
517,18.00816522066957
2,1, 7,21, 0, 6, 0.00,10.00,SummerDesignDay
8,13.438688835118548
10,6421821.553350139
631,3224300.8361674204
668,0.0
2,1, 7,21, 0, 6,10.00,20.00,SummerDesignDay
8,13.454493322631063
10,6421821.553350139
631,2808038.505530307
668,0.0
2,1, 7,21, 0, 6,20.00,30.00,SummerDesignDay
8,13.470289340350983
10,6421821.553350139
631,2381347.6082344187
668,0.0
2,1, 7,21, 0, 6,30.00,40.00,SummerDesignDay
8,13.486076034032447
10,6421821.553350139
631,1923058.879248492
668,0.0
2,1, 7,21, 0, 6,40.00,50.00,SummerDesignDay
8,13.50185415824011
10,6421821.553350139
631,1519454.732682379
668,0.0
2,1, 7,21, 0, 6,50.00,60.00,SummerDesignDay
8,13.517617463812285
10,6421821.553350139
631,1169712.3800663658
668,0.0
2,1, 7,21, 0, 6, 0.00,60.00,SummerDesignDay
357,18.145463028949469
397,18.00278957330733
437,18.00000068692058
477,19.777354931560795
517,18.000000392519174
2,1, 7,21, 0, 7, 0.00,10.00,SummerDesignDay
8,13.572736920571789
10,6421821.553350139
631,4287793.73660292
668,0.0
2,1, 7,21, 0, 7,10.00,20.00,SummerDesignDay
8,13.627748229152554
10,6421821.553350139
631,0.0
668,0.0
2,1, 7,21, 0, 7,20.00,30.00,SummerDesignDay
8,13.682651961920304
10,6421821.553350139
631,0.0
668,0.0
2,1, 7,21, 0, 7,30.00,40.00,SummerDesignDay
8,13.737448093244995
10,6421821.553350139
631,0.0
668,0.0
2,1, 7,21, 0, 7,40.00,50.00,SummerDesignDay
8,13.792137011831216
10,6421821.553350139
631,0.0
668,0.0
2,1, 7,21, 0, 7,50.00,60.00,SummerDesignDay
8,13.846719282840333
10,6421821.553350139
631,0.0
668,0.0
2,1, 7,21, 0, 7, 0.00,60.00,SummerDesignDay
357,18.348574190681206
397,18.231459238745719
437,18.1551615759558
477,20.04244433852212
517,18.162630795042465
2,1, 7,21, 0, 8, 0.00,10.00,SummerDesignDay
8,13.978831900527043
10,10106165.89053492
631,84475986.70531327
668,0.0
2,1, 7,21, 0, 8,10.00,20.00,SummerDesignDay
8,14.110321014287419
10,10106165.89053492
631,6339560.665678461
668,0.0
2,1, 7,21, 0, 8,20.00,30.00,SummerDesignDay
8,14.241191509616986
10,10106165.89053492
631,13802875.722044466
668,0.0
2,1, 7,21, 0, 8,30.00,40.00,SummerDesignDay
8,14.371447531304272
10,10106165.89053492
631,1485312.3875461296
668,0.0
2,1, 7,21, 0, 8,40.00,50.00,SummerDesignDay
8,14.501093766564925
10,10106165.89053492
631,335445.732159197
668,0.0
2,1, 7,21, 0, 8,50.00,60.00,SummerDesignDay
8,14.630134792273804
10,10106165.89053492
631,0.0
668,0.0
2,1, 7,21, 0, 8, 0.00,60.00,SummerDesignDay
357,20.09310477825901
397,20.078102135987565
437,18.9867360097691
477,22.249395573430644
517,18.972944391462059
2,1, 7,21, 0, 9, 0.00,10.00,SummerDesignDay
8,14.773641492809972
10,30254748.199574558
631,74502945.92676544
668,0.0
2,1, 7,21, 0, 9,10.00,20.00,SummerDesignDay
8,14.91640948124148
10,30254748.199574558
631,0.0
668,0.0
2,1, 7,21, 0, 9,20.00,30.00,SummerDesignDay
8,15.05843890714102
10,30254748.199574558
631,0.0
668,0.0
2,1, 7,21, 0, 9,30.00,40.00,SummerDesignDay
8,15.199735893563798
10,30254748.199574558
631,0.0
668,5445033.728561587
2,1, 7,21, 0, 9,40.00,50.00,SummerDesignDay
8,15.340306256439395
10,30254748.199574558
631,0.0
668,12048212.317496449
2,1, 7,21, 0, 9,50.00,60.00,SummerDesignDay
8,15.48015101768072
10,30254748.199574558
631,0.0
668,12499019.69222344
2,1, 7,21, 0, 9, 0.00,60.00,SummerDesignDay
357,22.455196450131657
397,22.434164924600255
437,20.830080662564837
477,23.568280470520376
517,20.575487722995264
2,1, 7,21, 0,10, 0.00,10.00,SummerDesignDay
8,15.60467292907716
10,55214540.46525283
631,3888512.803984634
668,20849616.214888745
2,1, 7,21, 0,10,10.00,20.00,SummerDesignDay
8,15.72862731650033
10,55214540.46525283
631,0.0
668,34145887.98314161
2,1, 7,21, 0,10,20.00,30.00,SummerDesignDay
8,15.852017409284228
10,55214540.46525283
631,0.0
668,39361202.40202902
2,1, 7,21, 0,10,30.00,40.00,SummerDesignDay
8,15.974848118364367
10,55214540.46525283
631,0.0
668,52550265.67068932
2,1, 7,21, 0,10,40.00,50.00,SummerDesignDay
8,16.097123145563505
10,55214540.46525283
631,0.0
668,59867768.130758989
2,1, 7,21, 0,10,50.00,60.00,SummerDesignDay
8,16.218846351168599
10,55214540.46525283
631,0.0
668,70881010.0994736
2,1, 7,21, 0,10, 0.00,60.00,SummerDesignDay
357,23.638648288034344
397,23.91586025174323
437,23.276952316584937
477,23.999999971307614
517,22.624596055545554
2,1, 7,21, 0,11, 0.00,10.00,SummerDesignDay
8,16.325793027093189
10,58027017.057784158
631,0.0
668,88749650.17411876
2,1, 7,21, 0,11,10.00,20.00,SummerDesignDay
8,16.432322158488288
10,58027017.057784158
631,0.0
668,95726027.05360294
2,1, 7,21, 0,11,20.00,30.00,SummerDesignDay
8,16.538424180249178
10,58027017.057784158
631,0.0
668,102116745.94485696
2,1, 7,21, 0,11,30.00,40.00,SummerDesignDay
8,16.644108396469087
10,58027017.057784158
631,0.0
668,108268808.78609714
2,1, 7,21, 0,11,40.00,50.00,SummerDesignDay
8,16.749376736593655
10,58027017.057784158
631,0.0
668,114216052.83218776
2,1, 7,21, 0,11,50.00,60.00,SummerDesignDay
8,16.854232613237156
10,58027017.057784158
631,0.0
668,120015339.91031625
2,1, 7,21, 0,11, 0.00,60.00,SummerDesignDay
357,23.999999855813724
397,23.999999995968307
437,23.99993999060658
477,24.000000000000019
517,24.497143125832197
2,1, 7,21, 0,12, 0.00,10.00,SummerDesignDay
8,16.92390823520069
10,60839493.65031547
631,0.0
668,129251362.00015575
2,1, 7,21, 0,12,10.00,20.00,SummerDesignDay
8,16.99340178950456
10,60839493.65031547
631,0.0
668,133285938.23118566
2,1, 7,21, 0,12,20.00,30.00,SummerDesignDay
8,17.06272006743463
10,60839493.65031547
631,0.0
668,136784205.96385665
2,1, 7,21, 0,12,30.00,40.00,SummerDesignDay
8,17.131853229172639
10,60839493.65031547
631,0.0
668,140289691.84015829
2,1, 7,21, 0,12,40.00,50.00,SummerDesignDay
8,17.200807172194087
10,60839493.65031547
631,0.0
668,143724018.03687949
2,1, 7,21, 0,12,50.00,60.00,SummerDesignDay
8,17.269582116758607
10,60839493.65031547
631,0.0
668,147115689.4461729
2,1, 7,21, 0,12, 0.00,60.00,SummerDesignDay
357,23.99999999999987
397,23.999999999999984
437,23.999999998745137
477,24.000000000000015
517,25.835530687138364
2,1, 7,21, 0,13, 0.00,10.00,SummerDesignDay
8,17.32447360221357
10,60839493.65031547
631,0.0
668,153819850.26875616
2,1, 7,21, 0,13,10.00,20.00,SummerDesignDay
8,17.379251291230806
10,60839493.65031547
631,0.0
668,156356842.2182237
2,1, 7,21, 0,13,20.00,30.00,SummerDesignDay
8,17.433921312061729
10,60839493.65031547
631,0.0
668,158704367.90346686
2,1, 7,21, 0,13,30.00,40.00,SummerDesignDay
8,17.488473222557489
10,60839493.65031547
631,0.0
668,161044084.4378535
2,1, 7,21, 0,13,40.00,50.00,SummerDesignDay
8,17.542913447755134
10,60839493.65031547
631,0.0
668,163360871.68661676
2,1, 7,21, 0,13,50.00,60.00,SummerDesignDay
8,17.59724609886134
10,60839493.65031547
631,0.0
668,165663395.57276026
2,1, 7,21, 0,13, 0.00,60.00,SummerDesignDay
357,24.000000000000033
397,24.0
437,23.999999999999916
477,23.99999999999999
517,26.778761776920307
2,1, 7,21, 0,14, 0.00,10.00,SummerDesignDay
8,17.6311450462694
10,60839493.65031547
631,0.0
668,166443435.61784066
2,1, 7,21, 0,14,10.00,20.00,SummerDesignDay
8,17.665000449016245
10,60839493.65031547
631,0.0
668,167870929.7353188
2,1, 7,21, 0,14,20.00,30.00,SummerDesignDay
8,17.698812743128934
10,60839493.65031547
631,0.0
668,169316834.79380513
2,1, 7,21, 0,14,30.00,40.00,SummerDesignDay
8,17.732582050940107
10,60839493.65031547
631,0.0
668,170754021.99252559
2,1, 7,21, 0,14,40.00,50.00,SummerDesignDay
8,17.766307345121004
10,60839493.65031547
631,0.0
668,172186842.3120927
2,1, 7,21, 0,14,50.00,60.00,SummerDesignDay
8,17.79999023167558
10,60839493.65031547
631,0.0
668,173614913.82363454
2,1, 7,21, 0,14, 0.00,60.00,SummerDesignDay
357,24.000000000000019
397,23.99999999999999
437,23.99999999999999
477,24.00000000000004
517,27.46806476162958
2,1, 7,21, 0,15, 0.00,10.00,SummerDesignDay
8,17.79999023167558
10,60839493.65031547
631,0.0
668,260521038.92613799
2,1, 7,21, 0,15,10.00,20.00,SummerDesignDay
8,17.79999023167558
10,60839493.65031547
631,0.0
668,198411389.88586337
2,1, 7,21, 0,15,20.00,30.00,SummerDesignDay
8,17.79999023167558
10,60839493.65031547
631,0.0
668,220079032.90218318
2,1, 7,21, 0,15,30.00,40.00,SummerDesignDay
8,17.79999023167558
10,60839493.65031547
631,0.0
668,204534446.26967407
2,1, 7,21, 0,15,40.00,50.00,SummerDesignDay
8,17.79999023167558
10,60839493.65031547
631,0.0
668,204786109.7789219
2,1, 7,21, 0,15,50.00,60.00,SummerDesignDay
8,17.79999023167558
10,60839493.65031547
631,0.0
668,204604257.6439481
2,1, 7,21, 0,15, 0.00,60.00,SummerDesignDay
357,23.999999999999987
397,24.00000000000003
437,23.999999999999998
477,23.99999999999997
517,23.959676618032537
2,1, 7,21, 0,16, 0.00,10.00,SummerDesignDay
8,17.759562446305357
10,70165666.03269929
631,0.0
668,207725763.7775327
2,1, 7,21, 0,16,10.00,20.00,SummerDesignDay
8,17.71907809634183
10,70165666.03269929
631,0.0
668,208419639.906749
2,1, 7,21, 0,16,20.00,30.00,SummerDesignDay
8,17.67853788661001
10,70165666.03269929
631,0.0
668,205946535.22356657
2,1, 7,21, 0,16,30.00,40.00,SummerDesignDay
8,17.63791796367351
10,70165666.03269929
631,0.0
668,203910972.85985018
2,1, 7,21, 0,16,40.00,50.00,SummerDesignDay
8,17.59724609886134
10,70165666.03269929
631,0.0
668,201744968.4508501
2,1, 7,21, 0,16,50.00,60.00,SummerDesignDay
8,17.55650676726033
10,70165666.03269929
631,0.0
668,199393280.81876374
2,1, 7,21, 0,16, 0.00,60.00,SummerDesignDay
357,24.00000000000003
397,24.000000000000044
437,23.99999999999999
477,24.0
517,23.999999472120448
2,1, 7,21, 0,17, 0.00,10.00,SummerDesignDay
8,17.50209486331892
10,65800702.36089696
631,0.0
668,192040199.49453653
2,1, 7,21, 0,17,10.00,20.00,SummerDesignDay
8,17.447570789624618
10,65800702.36089696
631,0.0
668,188157107.2906857
2,1, 7,21, 0,17,20.00,30.00,SummerDesignDay
8,17.392929544208135
10,65800702.36089696
631,0.0
668,184561662.34946675
2,1, 7,21, 0,17,30.00,40.00,SummerDesignDay
8,17.33818013976614
10,65800702.36089696
631,0.0
668,180926004.4441923
2,1, 7,21, 0,17,40.00,50.00,SummerDesignDay
8,17.283317298559309
10,65800702.36089696
631,0.0
668,177307341.65213127
2,1, 7,21, 0,17,50.00,60.00,SummerDesignDay
8,17.22833552437677
10,65800702.36089696
631,0.0
668,173700237.44359074
2,1, 7,21, 0,17, 0.00,60.00,SummerDesignDay
357,24.000000000000026
397,24.000000000000033
437,23.999999999999987
477,24.00000000000003
517,23.999999999972258
2,1, 7,21, 0,18, 0.00,10.00,SummerDesignDay
8,17.159453019160176
10,60299498.14532446
631,0.0
668,159919402.7452638
2,1, 7,21, 0,18,10.00,20.00,SummerDesignDay
8,17.090391773337136
10,60299498.14532446
631,0.0
668,154321024.37380404
2,1, 7,21, 0,18,20.00,30.00,SummerDesignDay
8,17.021151077964786
10,60299498.14532446
631,0.0
668,149385903.2071801
2,1, 7,21, 0,18,30.00,40.00,SummerDesignDay
8,16.951729380464653
10,60299498.14532446
631,0.0
668,144398679.38721655
2,1, 7,21, 0,18,40.00,50.00,SummerDesignDay
8,16.882126503829249
10,60299498.14532446
631,0.0
668,139470224.46694044
2,1, 7,21, 0,18,50.00,60.00,SummerDesignDay
8,16.812341807494034
10,60299498.14532446
631,0.0
668,134559716.70678068
2,1, 7,21, 0,18, 0.00,60.00,SummerDesignDay
357,23.999999999999955
397,24.000000000000015
437,24.0
477,24.000000000000019
517,24.0
2,1, 7,21, 0,19, 0.00,10.00,SummerDesignDay
8,16.707321072823203
10,60333247.865597318
631,0.0
668,130833499.68641767
2,1, 7,21, 0,19,10.00,20.00,SummerDesignDay
8,16.601881826644556
10,60333247.865597318
631,0.0
668,123716044.13889435
2,1, 7,21, 0,19,20.00,30.00,SummerDesignDay
8,16.496030555252849
10,60333247.865597318
631,0.0
668,115884667.04209942
2,1, 7,21, 0,19,30.00,40.00,SummerDesignDay
8,16.389760181474104
10,60333247.865597318
631,0.0
668,108221099.75633258
2,1, 7,21, 0,19,40.00,50.00,SummerDesignDay
8,16.283067654262039
10,60333247.865597318
631,0.0
668,100507288.12931296
2,1, 7,21, 0,19,50.00,60.00,SummerDesignDay
8,16.17595057957811
10,60333247.865597318
631,0.0
668,92801910.02149128
2,1, 7,21, 0,19, 0.00,60.00,SummerDesignDay
357,24.000000000000019
397,24.0
437,24.00000000000003
477,24.0
517,24.00000000000001
2,1, 7,21, 0,20, 0.00,10.00,SummerDesignDay
8,16.097123145563505
10,59590754.04623467
631,0.0
668,94191576.47816392
2,1, 7,21, 0,20,10.00,20.00,SummerDesignDay
8,16.018070242471564
10,59590754.04623467
631,0.0
668,88939277.66330675
2,1, 7,21, 0,20,20.00,30.00,SummerDesignDay
8,15.938779752340516
10,59590754.04623467
631,0.0
668,83050102.96682447
2,1, 7,21, 0,20,30.00,40.00,SummerDesignDay
8,15.85926152575189
10,59590754.04623467
631,0.0
668,77324407.84198918
2,1, 7,21, 0,20,40.00,50.00,SummerDesignDay
8,15.779503718563929
10,59590754.04623467
631,0.0
668,71557695.12196651
2,1, 7,21, 0,20,50.00,60.00,SummerDesignDay
8,15.699515709672767
10,59590754.04623467
631,0.0
668,65795226.51633169
2,1, 7,21, 0,20, 0.00,60.00,SummerDesignDay
357,24.00000000000001
397,24.00000000000001
437,24.0
477,24.00000000000001
517,24.000000000000005
2,1, 7,21, 0,21, 0.00,10.00,SummerDesignDay
8,15.63389147320404
10,58525762.910314898
631,0.0
668,60087504.656306717
2,1, 7,21, 0,21,10.00,20.00,SummerDesignDay
8,15.56810827419793
10,58525762.910314898
631,0.0
668,55240318.37330552
2,1, 7,21, 0,21,20.00,30.00,SummerDesignDay
8,15.502170882753524
10,58525762.910314898
631,0.0
668,50506326.99433996
2,1, 7,21, 0,21,30.00,40.00,SummerDesignDay
8,15.436068032613852
10,58525762.910314898
631,0.0
668,45764194.26342037
2,1, 7,21, 0,21,40.00,50.00,SummerDesignDay
8,15.369804371206009
10,58525762.910314898
631,0.0
668,41023660.20901455
2,1, 7,21, 0,21,50.00,60.00,SummerDesignDay
8,15.303384603594449
10,58525762.910314898
631,0.0
668,36287278.89188052
2,1, 7,21, 0,21, 0.00,60.00,SummerDesignDay
357,23.99999999999999
397,24.000000000000015
437,24.00000000000001
477,23.999999999999998
517,24.000000000000076
2,1, 7,21, 0,22, 0.00,10.00,SummerDesignDay
8,15.236797685071274
10,50617078.73337622
631,0.0
668,30615769.42273106
2,1, 7,21, 0,22,10.00,20.00,SummerDesignDay
8,15.170047891787942
10,50617078.73337622
631,0.0
668,27043841.96368863
2,1, 7,21, 0,22,20.00,30.00,SummerDesignDay
8,15.103134826860483
10,50617078.73337622
631,0.0
668,23404291.36102553
2,1, 7,21, 0,22,30.00,40.00,SummerDesignDay
8,15.036063385178485
10,50617078.73337622
631,0.0
668,19738895.371996307
2,1, 7,21, 0,22,40.00,50.00,SummerDesignDay
8,14.968821767219835
10,50617078.73337622
631,0.0
668,17400733.280564745
2,1, 7,21, 0,22,50.00,60.00,SummerDesignDay
8,14.90141525878635
10,50617078.73337622
631,0.0
668,15080705.586240979
2,1, 7,21, 0,22, 0.00,60.00,SummerDesignDay
357,22.76940700289195
397,24.00000000000001
437,23.97276432994305
477,23.699021336974835
517,23.999999999999987
2,1, 7,21, 0,23, 0.00,10.00,SummerDesignDay
8,14.848873673278373
10,41887151.38977154
631,0.0
668,8864452.221267885
2,1, 7,21, 0,23,10.00,20.00,SummerDesignDay
8,14.796237168136719
10,41887151.38977154
631,0.0
668,7688291.481417068
2,1, 7,21, 0,23,20.00,30.00,SummerDesignDay
8,14.743494321455645
10,41887151.38977154
631,0.0
668,6634876.834450249
2,1, 7,21, 0,23,30.00,40.00,SummerDesignDay
8,14.690649975253665
10,41887151.38977154
631,0.0
668,5562355.618860475
2,1, 7,21, 0,23,40.00,50.00,SummerDesignDay
8,14.637704281233117
10,41887151.38977154
631,0.0
668,4503067.053894226
2,1, 7,21, 0,23,50.00,60.00,SummerDesignDay
8,14.584656914839757
10,41887151.38977154
631,0.0
668,3454308.9444563218
2,1, 7,21, 0,23, 0.00,60.00,SummerDesignDay
357,21.640386591766377
397,22.7710463092476
437,23.264617653395346
477,23.128818315093129
517,23.99999999999999
2,1, 7,21, 0,24, 0.00,10.00,SummerDesignDay
8,14.531507212058875
10,35862826.528133537
631,0.0
668,0.0
2,1, 7,21, 0,24,10.00,20.00,SummerDesignDay
8,14.47825496413355
10,35862826.528133537
631,0.0
668,0.0
2,1, 7,21, 0,24,20.00,30.00,SummerDesignDay
8,14.4249000133173
10,35862826.528133537
631,0.0
668,0.0
2,1, 7,21, 0,24,30.00,40.00,SummerDesignDay
8,14.371447531304272
10,35862826.528133537
631,0.0
668,0.0
2,1, 7,21, 0,24,40.00,50.00,SummerDesignDay
8,14.31788619902223
10,35862826.528133537
631,0.0
668,0.0
2,1, 7,21, 0,24,50.00,60.00,SummerDesignDay
8,14.264220970176066
10,35862826.528133537
631,1735323.6315473614
668,0.0
2,1, 7,21, 0,24, 0.00,60.00,SummerDesignDay
357,20.87165947588075
397,21.019481739429595
437,22.324496822463546
477,22.432400463735573
517,23.69760444116157
3,1, 7,21, 0,SummerDesignDay
358,52.221905148352387,44.73963034857435,12,60,64.76117561884745, 6,30
398,50.806448659839819,41.678566124109448,18,40,65.31139058733834, 6,40
438,50.05328904035088,40.3173246031603,17,10,65.31143077485517, 6,10
478,47.985223762520927,42.301742582340079,20,10,58.52465607965105, 6,60
518,50.1207700250485,36.30195547493536,14,60,65.31140346421897, 6,10
4,1, 7
7,22.2505,16.5,21, 5,60,28.9,21,14,60
1,FORT MCMURRAY AP ANN HTG 99.6% CONDNS DB,  56.65,-111.22,  -7.00, 369.10
2,1, 1,21, 0, 1, 0.00,10.00,WinterDesignDay
8,-36.2
10,26885401.24191579
631,888086129.0536592
668,0.0
2,1, 1,21, 0, 1,10.00,20.00,WinterDesignDay
8,-36.2
10,26885401.24191579
631,958993902.6047328
668,0.0
2,1, 1,21, 0, 1,20.00,30.00,WinterDesignDay
8,-36.2
10,26885401.24191579
631,920892387.9204874
668,0.0
2,1, 1,21, 0, 1,30.00,40.00,WinterDesignDay
8,-36.2
10,26885401.24191579
631,928975525.6759607
668,0.0
2,1, 1,21, 0, 1,40.00,50.00,WinterDesignDay
8,-36.2
10,26885401.24191579
631,930459154.4006645
668,0.0
2,1, 1,21, 0, 1,50.00,60.00,WinterDesignDay
8,-36.2
10,26885401.24191579
631,931037929.2868238
668,0.0
2,1, 1,21, 0, 1, 0.00,60.00,WinterDesignDay
357,18.0
397,18.00000000075173
437,22.00000000000001
477,18.00000000000001
517,18.041789179423604
2,1, 1,21, 0, 2, 0.00,10.00,WinterDesignDay
8,-36.2
10,12046774.738412774
631,945195307.1339315
668,0.0
2,1, 1,21, 0, 2,10.00,20.00,WinterDesignDay
8,-36.2
10,12046774.738412774
631,946440031.9941671
668,0.0
2,1, 1,21, 0, 2,20.00,30.00,WinterDesignDay
8,-36.2
10,12046774.738412774
631,946966384.9473066
668,0.0
2,1, 1,21, 0, 2,30.00,40.00,WinterDesignDay
8,-36.2
10,12046774.738412774
631,947445380.4699587
668,0.0
2,1, 1,21, 0, 2,40.00,50.00,WinterDesignDay
8,-36.2
10,12046774.738412774
631,947804734.2222909
668,0.0
2,1, 1,21, 0, 2,50.00,60.00,WinterDesignDay
8,-36.2
10,12046774.738412774
631,948094481.0951367
668,0.0
2,1, 1,21, 0, 2, 0.00,60.00,WinterDesignDay
357,18.000000000000005
397,18.000000000000005
437,22.0
477,18.00000000000001
517,18.000000000000005
2,1, 1,21, 0, 3, 0.00,10.00,WinterDesignDay
8,-36.2
10,6421821.553350139
631,895688215.2056875
668,0.0
2,1, 1,21, 0, 3,10.00,20.00,WinterDesignDay
8,-36.2
10,6421821.553350139
631,960759257.2626556
668,0.0
2,1, 1,21, 0, 3,20.00,30.00,WinterDesignDay
8,-36.2
10,6421821.553350139
631,921149337.8134164
668,0.0
2,1, 1,21, 0, 3,30.00,40.00,WinterDesignDay
8,-36.2
10,6421821.553350139
631,929313834.4053018
668,0.0
2,1, 1,21, 0, 3,40.00,50.00,WinterDesignDay
8,-36.2
10,6421821.553350139
631,930523650.8567997
668,0.0
2,1, 1,21, 0, 3,50.00,60.00,WinterDesignDay
8,-36.2
10,6421821.553350139
631,930942901.8051066
668,0.0
2,1, 1,21, 0, 3, 0.00,60.00,WinterDesignDay
357,18.0
397,18.0
437,18.03877959397015
477,18.00000000000001
517,18.000000000000005
2,1, 1,21, 0, 4, 0.00,10.00,WinterDesignDay
8,-36.2
10,6421821.553350139
631,931277182.1258326
668,0.0
2,1, 1,21, 0, 4,10.00,20.00,WinterDesignDay
8,-36.2
10,6421821.553350139
631,931531808.9086114
668,0.0
2,1, 1,21, 0, 4,20.00,30.00,WinterDesignDay
8,-36.2
10,6421821.553350139
631,931727266.3784056
668,0.0
2,1, 1,21, 0, 4,30.00,40.00,WinterDesignDay
8,-36.2
10,6421821.553350139
631,931888237.7529175
668,0.0
2,1, 1,21, 0, 4,40.00,50.00,WinterDesignDay
8,-36.2
10,6421821.553350139
631,932010336.6832976
668,0.0
2,1, 1,21, 0, 4,50.00,60.00,WinterDesignDay
8,-36.2
10,6421821.553350139
631,932111750.1844616
668,0.0
2,1, 1,21, 0, 4, 0.00,60.00,WinterDesignDay
357,18.000000000000005
397,18.000000000000005
437,18.000000000000005
477,18.00000000000001
517,18.000000000000005
2,1, 1,21, 0, 5, 0.00,10.00,WinterDesignDay
8,-36.2
10,6421821.553350139
631,932187762.5663085
668,0.0
2,1, 1,21, 0, 5,10.00,20.00,WinterDesignDay
8,-36.2
10,6421821.553350139
631,932252335.0874571
668,0.0
2,1, 1,21, 0, 5,20.00,30.00,WinterDesignDay
8,-36.2
10,6421821.553350139
631,932298752.7743805
668,0.0
2,1, 1,21, 0, 5,30.00,40.00,WinterDesignDay
8,-36.2
10,6421821.553350139
631,932339170.2159898
668,0.0
2,1, 1,21, 0, 5,40.00,50.00,WinterDesignDay
8,-36.2
10,6421821.553350139
631,932376049.3232298
668,0.0
2,1, 1,21, 0, 5,50.00,60.00,WinterDesignDay
8,-36.2
10,6421821.553350139
631,932407944.0949738
668,0.0
2,1, 1,21, 0, 5, 0.00,60.00,WinterDesignDay
357,18.0
397,18.000000000000005
437,18.000000000000005
477,18.00000000000001
517,18.0
2,1, 1,21, 0, 6, 0.00,10.00,WinterDesignDay
8,-36.2
10,6421821.553350139
631,932435012.5936682
668,0.0
2,1, 1,21, 0, 6,10.00,20.00,WinterDesignDay
8,-36.2
10,6421821.553350139
631,932457858.0647966
668,0.0
2,1, 1,21, 0, 6,20.00,30.00,WinterDesignDay
8,-36.2
10,6421821.553350139
631,932477140.5781243
668,0.0
2,1, 1,21, 0, 6,30.00,40.00,WinterDesignDay
8,-36.2
10,6421821.553350139
631,932493457.395817
668,0.0
2,1, 1,21, 0, 6,40.00,50.00,WinterDesignDay
8,-36.2
10,6421821.553350139
631,932507315.9036954
668,0.0
2,1, 1,21, 0, 6,50.00,60.00,WinterDesignDay
8,-36.2
10,6421821.553350139
631,932515736.2121496
668,0.0
2,1, 1,21, 0, 6, 0.00,60.00,WinterDesignDay
357,18.000000000000005
397,18.0
437,18.0
477,18.0
517,18.0
2,1, 1,21, 0, 7, 0.00,10.00,WinterDesignDay
8,-36.2
10,6421821.553350139
631,959016597.7249551
668,0.0
2,1, 1,21, 0, 7,10.00,20.00,WinterDesignDay
8,-36.2
10,6421821.553350139
631,917427536.7966248
668,0.0
2,1, 1,21, 0, 7,20.00,30.00,WinterDesignDay
8,-36.2
10,6421821.553350139
631,943526148.8280972
668,0.0
2,1, 1,21, 0, 7,30.00,40.00,WinterDesignDay
8,-36.2
10,6421821.553350139
631,937147704.0556659
668,0.0
2,1, 1,21, 0, 7,40.00,50.00,WinterDesignDay
8,-36.2
10,6421821.553350139
631,937121901.8407238
668,0.0
2,1, 1,21, 0, 7,50.00,60.00,WinterDesignDay
8,-36.2
10,6421821.553350139
631,937006558.6524541
668,0.0
2,1, 1,21, 0, 7, 0.00,60.00,WinterDesignDay
357,18.0
397,18.000000000000005
437,18.0
477,20.00767288910757
517,18.000000000000008
2,1, 1,21, 0, 8, 0.00,10.00,WinterDesignDay
8,-36.2
10,10106165.89053492
631,1026023555.0047212
668,0.0
2,1, 1,21, 0, 8,10.00,20.00,WinterDesignDay
8,-36.2
10,10106165.89053492
631,896880550.8042524
668,0.0
2,1, 1,21, 0, 8,20.00,30.00,WinterDesignDay
8,-36.2
10,10106165.89053492
631,977577952.3115972
668,0.0
2,1, 1,21, 0, 8,30.00,40.00,WinterDesignDay
8,-36.2
10,10106165.89053492
631,958434698.6100605
668,0.0
2,1, 1,21, 0, 8,40.00,50.00,WinterDesignDay
8,-36.2
10,10106165.89053492
631,957763819.9494926
668,0.0
2,1, 1,21, 0, 8,50.00,60.00,WinterDesignDay
8,-36.2
10,10106165.89053492
631,957256766.503194
668,0.0
2,1, 1,21, 0, 8, 0.00,60.00,WinterDesignDay
357,19.99715004208926
397,19.997132480597924
437,18.000000000000005
477,22.007332098010598
517,18.0
2,1, 1,21, 0, 9, 0.00,10.00,WinterDesignDay
8,-36.2
10,30254748.199574558
631,1034992240.4731346
668,0.0
2,1, 1,21, 0, 9,10.00,20.00,WinterDesignDay
8,-36.2
10,30254748.199574558
631,909127765.2046391
668,0.0
2,1, 1,21, 0, 9,20.00,30.00,WinterDesignDay
8,-36.2
10,30254748.199574558
631,986455036.1551361
668,0.0
2,1, 1,21, 0, 9,30.00,40.00,WinterDesignDay
8,-36.2
10,30254748.199574558
631,967958497.7701197
668,0.0
2,1, 1,21, 0, 9,40.00,50.00,WinterDesignDay
8,-36.2
10,30254748.199574558
631,966700742.7768152
668,0.0
2,1, 1,21, 0, 9,50.00,60.00,WinterDesignDay
8,-36.2
10,30254748.199574558
631,965857488.6808316
668,0.0
2,1, 1,21, 0, 9, 0.00,60.00,WinterDesignDay
357,21.99648739260895
397,21.996470829067805
437,19.99662183873363
477,22.000000000000019
517,18.000000000000005
2,1, 1,21, 0,10, 0.00,10.00,WinterDesignDay
8,-36.2
10,55214540.46525283
631,970153207.8550522
668,0.0
2,1, 1,21, 0,10,10.00,20.00,WinterDesignDay
8,-36.2
10,55214540.46525283
631,927440795.7615048
668,0.0
2,1, 1,21, 0,10,20.00,30.00,WinterDesignDay
8,-36.2
10,55214540.46525283
631,950756714.8715683
668,0.0
2,1, 1,21, 0,10,30.00,40.00,WinterDesignDay
8,-36.2
10,55214540.46525283
631,944349542.5595658
668,0.0
2,1, 1,21, 0,10,40.00,50.00,WinterDesignDay
8,-36.2
10,55214540.46525283
631,943428801.9992983
668,0.0